
Predictions were generated on 22-May-2018 at 13:24:43 using AeroDyn_driver
 AeroDyn

Case 1: WndSpeed=6 m/s; ShearExp=0 ; RotSpeed=64.14 rpm; Pitch=0 deg; Yaw=-15 deg; dT=5.00000E-02 s; Tmax=4 s

     Time           
      (s)           
         0.0000
         0.0500
