
Predictions were generated on 22-May-2018 at 13:55:28 using AeroDyn_driver
 AeroDyn

Case 1: WndSpeed=7 m/s; ShearExp=0 ; RotSpeed=12.1 rpm; Pitch=0 deg; Yaw=20 deg; dT=0.138 s; Tmax=12.793 s

     Time           
      (s)           
