
Predictions were generated on 18-Jun-2018 at 09:50:48 using AeroDyn_Wrapper
 AeroDyn

Case 2: WndSpeed=0 m/s; ShearExp=0 ; RotSpeed=12.1 rpm; Pitch=0 deg; Yaw=20 deg; dT=1.38000E-02 s; Tmax=12.793 s

     Time           	B1N1Alpha 	B1N1Cl    	B1N1Cd    	B1N1Cm    	B1N2Alpha 	B1N2Cl    	B1N2Cd    	B1N2Cm    	B1N3Alpha 	B1N3Cl    	B1N3Cd    	B1N3Cm    	B1N4Alpha 	B1N4Cl    	B1N4Cd    	B1N4Cm    	B1N5Alpha 	B1N5Cl    	B1N5Cd    	B1N5Cm    
      (s)           	(deg)     	(-)       	(-)       	(-)       	(deg)     	(-)       	(-)       	(-)       	(deg)     	(-)       	(-)       	(-)       	(deg)     	(-)       	(-)       	(-)       	(deg)     	(-)       	(-)       	(-)       
         0.0000	  1.666920E+002	  0.000000E+000	  3.500000E-001	  0.000000E+000	  1.666920E+002	 -5.097852E-001	  1.685566E-001	 -2.321746E-001	  1.685200E+002	 -4.647339E-001	  1.326672E-001	 -2.054885E-001	  1.709890E+002	 -5.032825E-001	  8.885986E-002	 -2.571639E-001	  1.722050E+002	 -5.986514E-001	  6.621172E-002	 -3.028013E-001
         0.0138	  1.666920E+002	  0.000000E+000	  3.500000E-001	  0.000000E+000	  1.666920E+002	 -5.097852E-001	  1.685566E-001	  0.000000E+000	  1.685200E+002	 -4.647339E-001	  1.326672E-001	  0.000000E+000	  1.709890E+002	 -5.032825E-001	  8.885986E-002	  0.000000E+000	  1.722050E+002	 -5.986514E-001	  6.621172E-002	  0.000000E+000
         0.0276	  1.666920E+002	  0.000000E+000	  3.500000E-001	  0.000000E+000	  1.666920E+002	 -5.097852E-001	  1.685566E-001	 -2.321746E-001	  1.685200E+002	 -4.647339E-001	  1.326672E-001	 -2.054885E-001	  1.709890E+002	 -5.032825E-001	  8.885986E-002	 -2.571639E-001	  1.722050E+002	 -5.986514E-001	  6.621172E-002	 -3.028013E-001
         0.0414	  1.666920E+002	  0.000000E+000	  3.500000E-001	  0.000000E+000	  1.666920E+002	 -5.097852E-001	  1.685566E-001	 -2.321746E-001	  1.685200E+002	 -4.647339E-001	  1.326672E-001	 -2.054885E-001	  1.709890E+002	 -5.032825E-001	  8.885986E-002	 -2.571639E-001	  1.722050E+002	 -5.986514E-001	  6.621172E-002	 -3.028013E-001
         0.0552	  1.666920E+002	  0.000000E+000	  3.500000E-001	  0.000000E+000	  1.666920E+002	 -5.097852E-001	  1.685566E-001	 -2.321746E-001	  1.685200E+002	 -4.647339E-001	  1.326672E-001	 -2.054885E-001	  1.709890E+002	 -5.032825E-001	  8.885986E-002	 -2.571639E-001	  1.722050E+002	 -5.986514E-001	  6.621172E-002	 -3.028013E-001
         0.0690	  1.666920E+002	  0.000000E+000	  3.500000E-001	  0.000000E+000	  1.666920E+002	 -5.097852E-001	  1.685566E-001	 -2.321746E-001	  1.685200E+002	 -4.647339E-001	  1.326672E-001	 -2.054885E-001	  1.709890E+002	 -5.032825E-001	  8.885986E-002	 -2.571639E-001	  1.722050E+002	 -5.986514E-001	  6.621172E-002	 -3.028013E-001
         0.0828	  1.666920E+002	  0.000000E+000	  3.500000E-001	  0.000000E+000	  1.666920E+002	 -5.097852E-001	  1.685566E-001	 -2.321746E-001	  1.685200E+002	 -4.647339E-001	  1.326672E-001	 -2.054885E-001	  1.709890E+002	 -5.032825E-001	  8.885986E-002	 -2.571639E-001	  1.722050E+002	 -5.986514E-001	  6.621172E-002	 -3.028013E-001
         0.0966	  1.666920E+002	  0.000000E+000	  3.500000E-001	  0.000000E+000	  1.666920E+002	 -5.097852E-001	  1.685566E-001	 -2.321746E-001	  1.685200E+002	 -4.647339E-001	  1.326672E-001	 -2.054885E-001	  1.709890E+002	 -5.032825E-001	  8.885986E-002	 -2.571639E-001	  1.722050E+002	 -5.986514E-001	  6.621172E-002	 -3.028013E-001
         0.1104	  1.666920E+002	  0.000000E+000	  3.500000E-001	  0.000000E+000	  1.666920E+002	 -5.097852E-001	  1.685566E-001	 -2.321746E-001	  1.685200E+002	 -4.647339E-001	  1.326672E-001	 -2.054885E-001	  1.709890E+002	 -5.032825E-001	  8.885986E-002	 -2.571639E-001	  1.722050E+002	 -5.986514E-001	  6.621172E-002	 -3.028013E-001
         0.1242	  1.666920E+002	  0.000000E+000	  3.500000E-001	  0.000000E+000	  1.666920E+002	 -5.097852E-001	  1.685566E-001	 -2.321746E-001	  1.685200E+002	 -4.647339E-001	  1.326672E-001	 -2.054885E-001	  1.709890E+002	 -5.032825E-001	  8.885986E-002	 -2.571639E-001	  1.722050E+002	 -5.986514E-001	  6.621172E-002	 -3.028013E-001
         0.1380	  1.666920E+002	  0.000000E+000	  3.500000E-001	  0.000000E+000	  1.666920E+002	 -5.097852E-001	  1.685566E-001	 -2.321746E-001	  1.685200E+002	 -4.647339E-001	  1.326672E-001	 -2.054885E-001	  1.709890E+002	 -5.032825E-001	  8.885986E-002	 -2.571639E-001	  1.722050E+002	 -5.986514E-001	  6.621172E-002	 -3.028013E-001
         0.1518	  1.666920E+002	  0.000000E+000	  3.500000E-001	  0.000000E+000	  1.666920E+002	 -5.097852E-001	  1.685566E-001	 -2.321746E-001	  1.685200E+002	 -4.647339E-001	  1.326672E-001	 -2.054885E-001	  1.709890E+002	 -5.032825E-001	  8.885986E-002	 -2.571639E-001	  1.722050E+002	 -5.986514E-001	  6.621172E-002	 -3.028013E-001
         0.1656	  1.666920E+002	  0.000000E+000	  3.500000E-001	  0.000000E+000	  1.666920E+002	 -5.097852E-001	  1.685566E-001	 -2.321746E-001	  1.685200E+002	 -4.647339E-001	  1.326672E-001	 -2.054885E-001	  1.709890E+002	 -5.032825E-001	  8.885986E-002	 -2.571639E-001	  1.722050E+002	 -5.986514E-001	  6.621172E-002	 -3.028013E-001
         0.1794	  1.666920E+002	  0.000000E+000	  3.500000E-001	  0.000000E+000	  1.666920E+002	 -5.097852E-001	  1.685566E-001	 -2.321746E-001	  1.685200E+002	 -4.647339E-001	  1.326672E-001	 -2.054885E-001	  1.709890E+002	 -5.032825E-001	  8.885986E-002	 -2.571639E-001	  1.722050E+002	 -5.986514E-001	  6.621172E-002	 -3.028013E-001
         0.1932	  1.666920E+002	  0.000000E+000	  3.500000E-001	  0.000000E+000	  1.666920E+002	 -5.097852E-001	  1.685566E-001	 -2.321746E-001	  1.685200E+002	 -4.647339E-001	  1.326672E-001	 -2.054885E-001	  1.709890E+002	 -5.032825E-001	  8.885986E-002	 -2.571639E-001	  1.722050E+002	 -5.986514E-001	  6.621172E-002	 -3.028013E-001
         0.2070	  1.666920E+002	  0.000000E+000	  3.500000E-001	  0.000000E+000	  1.666920E+002	 -5.097852E-001	  1.685566E-001	 -2.321746E-001	  1.685200E+002	 -4.647339E-001	  1.326672E-001	 -2.054885E-001	  1.709890E+002	 -5.032825E-001	  8.885986E-002	 -2.571639E-001	  1.722050E+002	 -5.986514E-001	  6.621172E-002	 -3.028013E-001
         0.2208	  1.666920E+002	  0.000000E+000	  3.500000E-001	  0.000000E+000	  1.666920E+002	 -5.097852E-001	  1.685566E-001	 -2.321746E-001	  1.685200E+002	 -4.647339E-001	  1.326672E-001	 -2.054885E-001	  1.709890E+002	 -5.032825E-001	  8.885986E-002	 -2.571639E-001	  1.722050E+002	 -5.986514E-001	  6.621172E-002	 -3.028013E-001
         0.2346	  1.666920E+002	  0.000000E+000	  3.500000E-001	  0.000000E+000	  1.666920E+002	 -5.097852E-001	  1.685566E-001	 -2.321746E-001	  1.685200E+002	 -4.647339E-001	  1.326672E-001	 -2.054885E-001	  1.709890E+002	 -5.032825E-001	  8.885986E-002	 -2.571639E-001	  1.722050E+002	 -5.986514E-001	  6.621172E-002	 -3.028013E-001
         0.2484	  1.666920E+002	  0.000000E+000	  3.500000E-001	  0.000000E+000	  1.666920E+002	 -5.097852E-001	  1.685566E-001	 -2.321746E-001	  1.685200E+002	 -4.647339E-001	  1.326672E-001	 -2.054885E-001	  1.709890E+002	 -5.032825E-001	  8.885986E-002	 -2.571639E-001	  1.722050E+002	 -5.986514E-001	  6.621172E-002	 -3.028013E-001
         0.2622	  1.666920E+002	  0.000000E+000	  3.500000E-001	  0.000000E+000	  1.666920E+002	 -5.097852E-001	  1.685566E-001	 -2.321746E-001	  1.685200E+002	 -4.647339E-001	  1.326672E-001	 -2.054885E-001	  1.709890E+002	 -5.032825E-001	  8.885986E-002	 -2.571639E-001	  1.722050E+002	 -5.986514E-001	  6.621172E-002	 -3.028013E-001
         0.2760	  1.666920E+002	  0.000000E+000	  3.500000E-001	  0.000000E+000	  1.666920E+002	 -5.097852E-001	  1.685566E-001	 -2.321746E-001	  1.685200E+002	 -4.647339E-001	  1.326672E-001	 -2.054885E-001	  1.709890E+002	 -5.032825E-001	  8.885986E-002	 -2.571639E-001	  1.722050E+002	 -5.986514E-001	  6.621172E-002	 -3.028013E-001
         0.2898	  1.666920E+002	  0.000000E+000	  3.500000E-001	  0.000000E+000	  1.666920E+002	 -5.097852E-001	  1.685566E-001	 -2.321746E-001	  1.685200E+002	 -4.647339E-001	  1.326672E-001	 -2.054885E-001	  1.709890E+002	 -5.032825E-001	  8.885986E-002	 -2.571639E-001	  1.722050E+002	 -5.986514E-001	  6.621172E-002	 -3.028013E-001
         0.3036	  1.666920E+002	  0.000000E+000	  3.500000E-001	  0.000000E+000	  1.666920E+002	 -5.097852E-001	  1.685566E-001	 -2.321746E-001	  1.685200E+002	 -4.647339E-001	  1.326672E-001	 -2.054885E-001	  1.709890E+002	 -5.032825E-001	  8.885986E-002	 -2.571639E-001	  1.722050E+002	 -5.986514E-001	  6.621172E-002	 -3.028013E-001
         0.3174	  1.666920E+002	  0.000000E+000	  3.500000E-001	  0.000000E+000	  1.666920E+002	 -5.097852E-001	  1.685566E-001	 -2.321746E-001	  1.685200E+002	 -4.647339E-001	  1.326672E-001	 -2.054885E-001	  1.709890E+002	 -5.032825E-001	  8.885986E-002	 -2.571639E-001	  1.722050E+002	 -5.986514E-001	  6.621172E-002	 -3.028013E-001
         0.3312	  1.666920E+002	  0.000000E+000	  3.500000E-001	  0.000000E+000	  1.666920E+002	 -5.097852E-001	  1.685566E-001	 -2.321746E-001	  1.685200E+002	 -4.647339E-001	  1.326672E-001	 -2.054885E-001	  1.709890E+002	 -5.032825E-001	  8.885986E-002	 -2.571639E-001	  1.722050E+002	 -5.986514E-001	  6.621172E-002	 -3.028013E-001
         0.3450	  1.666920E+002	  0.000000E+000	  3.500000E-001	  0.000000E+000	  1.666920E+002	 -5.097852E-001	  1.685566E-001	 -2.321746E-001	  1.685200E+002	 -4.647339E-001	  1.326672E-001	 -2.054885E-001	  1.709890E+002	 -5.032825E-001	  8.885986E-002	 -2.571639E-001	  1.722050E+002	 -5.986514E-001	  6.621172E-002	 -3.028013E-001
         0.3588	  1.666920E+002	  0.000000E+000	  3.500000E-001	  0.000000E+000	  1.666920E+002	 -5.097852E-001	  1.685566E-001	 -2.321746E-001	  1.685200E+002	 -4.647339E-001	  1.326672E-001	 -2.054885E-001	  1.709890E+002	 -5.032825E-001	  8.885986E-002	 -2.571639E-001	  1.722050E+002	 -5.986514E-001	  6.621172E-002	 -3.028013E-001
         0.3726	  1.666920E+002	  0.000000E+000	  3.500000E-001	  0.000000E+000	  1.666920E+002	 -5.097852E-001	  1.685566E-001	 -2.321746E-001	  1.685200E+002	 -4.647339E-001	  1.326672E-001	 -2.054885E-001	  1.709890E+002	 -5.032825E-001	  8.885986E-002	 -2.571639E-001	  1.722050E+002	 -5.986514E-001	  6.621172E-002	 -3.028013E-001
         0.3864	  1.666920E+002	  0.000000E+000	  3.500000E-001	  0.000000E+000	  1.666920E+002	 -5.097852E-001	  1.685566E-001	 -2.321746E-001	  1.685200E+002	 -4.647339E-001	  1.326672E-001	 -2.054885E-001	  1.709890E+002	 -5.032825E-001	  8.885986E-002	 -2.571639E-001	  1.722050E+002	 -5.986514E-001	  6.621172E-002	 -3.028013E-001
         0.4002	  1.666920E+002	  0.000000E+000	  3.500000E-001	  0.000000E+000	  1.666920E+002	 -5.097852E-001	  1.685566E-001	 -2.321746E-001	  1.685200E+002	 -4.647339E-001	  1.326672E-001	 -2.054885E-001	  1.709890E+002	 -5.032825E-001	  8.885986E-002	 -2.571639E-001	  1.722050E+002	 -5.986514E-001	  6.621172E-002	 -3.028013E-001
         0.4140	  1.666920E+002	  0.000000E+000	  3.500000E-001	  0.000000E+000	  1.666920E+002	 -5.097852E-001	  1.685566E-001	 -2.321746E-001	  1.685200E+002	 -4.647339E-001	  1.326672E-001	 -2.054885E-001	  1.709890E+002	 -5.032825E-001	  8.885986E-002	 -2.571639E-001	  1.722050E+002	 -5.986514E-001	  6.621172E-002	 -3.028013E-001
         0.4278	  1.666920E+002	  0.000000E+000	  3.500000E-001	  0.000000E+000	  1.666920E+002	 -5.097852E-001	  1.685566E-001	 -2.321746E-001	  1.685200E+002	 -4.647339E-001	  1.326672E-001	 -2.054885E-001	  1.709890E+002	 -5.032825E-001	  8.885986E-002	 -2.571639E-001	  1.722050E+002	 -5.986514E-001	  6.621172E-002	 -3.028013E-001
         0.4416	  1.666920E+002	  0.000000E+000	  3.500000E-001	  0.000000E+000	  1.666920E+002	 -5.097852E-001	  1.685566E-001	 -2.321746E-001	  1.685200E+002	 -4.647339E-001	  1.326672E-001	 -2.054885E-001	  1.709890E+002	 -5.032825E-001	  8.885986E-002	 -2.571639E-001	  1.722050E+002	 -5.986514E-001	  6.621172E-002	 -3.028013E-001
         0.4554	  1.666920E+002	  0.000000E+000	  3.500000E-001	  0.000000E+000	  1.666920E+002	 -5.097852E-001	  1.685566E-001	 -2.321746E-001	  1.685200E+002	 -4.647339E-001	  1.326672E-001	 -2.054885E-001	  1.709890E+002	 -5.032825E-001	  8.885986E-002	 -2.571639E-001	  1.722050E+002	 -5.986514E-001	  6.621172E-002	 -3.028013E-001
         0.4692	  1.666920E+002	  0.000000E+000	  3.500000E-001	  0.000000E+000	  1.666920E+002	 -5.097852E-001	  1.685566E-001	 -2.321746E-001	  1.685200E+002	 -4.647339E-001	  1.326672E-001	 -2.054885E-001	  1.709890E+002	 -5.032825E-001	  8.885986E-002	 -2.571639E-001	  1.722050E+002	 -5.986514E-001	  6.621172E-002	 -3.028013E-001
         0.4830	  1.666920E+002	  0.000000E+000	  3.500000E-001	  0.000000E+000	  1.666920E+002	 -5.097852E-001	  1.685566E-001	 -2.321746E-001	  1.685200E+002	 -4.647339E-001	  1.326672E-001	 -2.054885E-001	  1.709890E+002	 -5.032825E-001	  8.885986E-002	 -2.571639E-001	  1.722050E+002	 -5.986514E-001	  6.621172E-002	 -3.028013E-001
         0.4968	  1.666920E+002	  0.000000E+000	  3.500000E-001	  0.000000E+000	  1.666920E+002	 -5.097852E-001	  1.685566E-001	 -2.321746E-001	  1.685200E+002	 -4.647339E-001	  1.326672E-001	 -2.054885E-001	  1.709890E+002	 -5.032825E-001	  8.885986E-002	 -2.571639E-001	  1.722050E+002	 -5.986514E-001	  6.621172E-002	 -3.028013E-001
         0.5106	  1.666920E+002	  0.000000E+000	  3.500000E-001	  0.000000E+000	  1.666920E+002	 -5.097852E-001	  1.685566E-001	 -2.321746E-001	  1.685200E+002	 -4.647339E-001	  1.326672E-001	 -2.054885E-001	  1.709890E+002	 -5.032825E-001	  8.885986E-002	 -2.571639E-001	  1.722050E+002	 -5.986514E-001	  6.621172E-002	 -3.028013E-001
         0.5244	  1.666920E+002	  0.000000E+000	  3.500000E-001	  0.000000E+000	  1.666920E+002	 -5.097852E-001	  1.685566E-001	 -2.321746E-001	  1.685200E+002	 -4.647339E-001	  1.326672E-001	 -2.054885E-001	  1.709890E+002	 -5.032825E-001	  8.885986E-002	 -2.571639E-001	  1.722050E+002	 -5.986514E-001	  6.621172E-002	 -3.028013E-001
         0.5382	  1.666920E+002	  0.000000E+000	  3.500000E-001	  0.000000E+000	  1.666920E+002	 -5.097852E-001	  1.685566E-001	 -2.321746E-001	  1.685200E+002	 -4.647339E-001	  1.326672E-001	 -2.054885E-001	  1.709890E+002	 -5.032825E-001	  8.885986E-002	 -2.571639E-001	  1.722050E+002	 -5.986514E-001	  6.621172E-002	 -3.028013E-001
         0.5520	  1.666920E+002	  0.000000E+000	  3.500000E-001	  0.000000E+000	  1.666920E+002	 -5.097852E-001	  1.685566E-001	 -2.321746E-001	  1.685200E+002	 -4.647339E-001	  1.326672E-001	 -2.054885E-001	  1.709890E+002	 -5.032825E-001	  8.885986E-002	 -2.571639E-001	  1.722050E+002	 -5.986514E-001	  6.621172E-002	 -3.028013E-001
         0.5658	  1.666920E+002	  0.000000E+000	  3.500000E-001	  0.000000E+000	  1.666920E+002	 -5.097852E-001	  1.685566E-001	 -2.321746E-001	  1.685200E+002	 -4.647339E-001	  1.326672E-001	 -2.054885E-001	  1.709890E+002	 -5.032825E-001	  8.885986E-002	 -2.571639E-001	  1.722050E+002	 -5.986514E-001	  6.621172E-002	 -3.028013E-001
         0.5796	  1.666920E+002	  0.000000E+000	  3.500000E-001	  0.000000E+000	  1.666920E+002	 -5.097852E-001	  1.685566E-001	 -2.321746E-001	  1.685200E+002	 -4.647339E-001	  1.326672E-001	 -2.054885E-001	  1.709890E+002	 -5.032825E-001	  8.885986E-002	 -2.571639E-001	  1.722050E+002	 -5.986514E-001	  6.621172E-002	 -3.028013E-001
         0.5934	  1.666920E+002	  0.000000E+000	  3.500000E-001	  0.000000E+000	  1.666920E+002	 -5.097852E-001	  1.685566E-001	 -2.321746E-001	  1.685200E+002	 -4.647339E-001	  1.326672E-001	 -2.054885E-001	  1.709890E+002	 -5.032825E-001	  8.885986E-002	 -2.571639E-001	  1.722050E+002	 -5.986514E-001	  6.621172E-002	 -3.028013E-001
         0.6072	  1.666920E+002	  0.000000E+000	  3.500000E-001	  0.000000E+000	  1.666920E+002	 -5.097852E-001	  1.685566E-001	 -2.321746E-001	  1.685200E+002	 -4.647339E-001	  1.326672E-001	 -2.054885E-001	  1.709890E+002	 -5.032825E-001	  8.885986E-002	 -2.571639E-001	  1.722050E+002	 -5.986514E-001	  6.621172E-002	 -3.028013E-001
         0.6210	  1.666920E+002	  0.000000E+000	  3.500000E-001	  0.000000E+000	  1.666920E+002	 -5.097852E-001	  1.685566E-001	 -2.321746E-001	  1.685200E+002	 -4.647339E-001	  1.326672E-001	 -2.054885E-001	  1.709890E+002	 -5.032825E-001	  8.885986E-002	 -2.571639E-001	  1.722050E+002	 -5.986514E-001	  6.621172E-002	 -3.028013E-001
         0.6348	  1.666920E+002	  0.000000E+000	  3.500000E-001	  0.000000E+000	  1.666920E+002	 -5.097852E-001	  1.685566E-001	 -2.321746E-001	  1.685200E+002	 -4.647339E-001	  1.326672E-001	 -2.054885E-001	  1.709890E+002	 -5.032825E-001	  8.885986E-002	 -2.571639E-001	  1.722050E+002	 -5.986514E-001	  6.621172E-002	 -3.028013E-001
         0.6486	  1.666920E+002	  0.000000E+000	  3.500000E-001	  0.000000E+000	  1.666920E+002	 -5.097852E-001	  1.685566E-001	 -2.321746E-001	  1.685200E+002	 -4.647339E-001	  1.326672E-001	 -2.054885E-001	  1.709890E+002	 -5.032825E-001	  8.885986E-002	 -2.571639E-001	  1.722050E+002	 -5.986514E-001	  6.621172E-002	 -3.028013E-001
         0.6624	  1.666920E+002	  0.000000E+000	  3.500000E-001	  0.000000E+000	  1.666920E+002	 -5.097852E-001	  1.685566E-001	 -2.321746E-001	  1.685200E+002	 -4.647339E-001	  1.326672E-001	 -2.054885E-001	  1.709890E+002	 -5.032825E-001	  8.885986E-002	 -2.571639E-001	  1.722050E+002	 -5.986514E-001	  6.621172E-002	 -3.028013E-001
         0.6762	  1.666920E+002	  0.000000E+000	  3.500000E-001	  0.000000E+000	  1.666920E+002	 -5.097852E-001	  1.685566E-001	 -2.321746E-001	  1.685200E+002	 -4.647339E-001	  1.326672E-001	 -2.054885E-001	  1.709890E+002	 -5.032825E-001	  8.885986E-002	 -2.571639E-001	  1.722050E+002	 -5.986514E-001	  6.621172E-002	 -3.028013E-001
         0.6900	  1.666920E+002	  0.000000E+000	  3.500000E-001	  0.000000E+000	  1.666920E+002	 -5.097852E-001	  1.685566E-001	 -2.321746E-001	  1.685200E+002	 -4.647339E-001	  1.326672E-001	 -2.054885E-001	  1.709890E+002	 -5.032825E-001	  8.885986E-002	 -2.571639E-001	  1.722050E+002	 -5.986514E-001	  6.621172E-002	 -3.028013E-001
         0.7038	  1.666920E+002	  0.000000E+000	  3.500000E-001	  0.000000E+000	  1.666920E+002	 -5.097852E-001	  1.685566E-001	 -2.321746E-001	  1.685200E+002	 -4.647339E-001	  1.326672E-001	 -2.054885E-001	  1.709890E+002	 -5.032825E-001	  8.885986E-002	 -2.571639E-001	  1.722050E+002	 -5.986514E-001	  6.621172E-002	 -3.028013E-001
         0.7176	  1.666920E+002	  0.000000E+000	  3.500000E-001	  0.000000E+000	  1.666920E+002	 -5.097852E-001	  1.685566E-001	 -2.321746E-001	  1.685200E+002	 -4.647339E-001	  1.326672E-001	 -2.054885E-001	  1.709890E+002	 -5.032825E-001	  8.885986E-002	 -2.571639E-001	  1.722050E+002	 -5.986514E-001	  6.621172E-002	 -3.028013E-001
         0.7314	  1.666920E+002	  0.000000E+000	  3.500000E-001	  0.000000E+000	  1.666920E+002	 -5.097852E-001	  1.685566E-001	 -2.321746E-001	  1.685200E+002	 -4.647339E-001	  1.326672E-001	 -2.054885E-001	  1.709890E+002	 -5.032825E-001	  8.885986E-002	 -2.571639E-001	  1.722050E+002	 -5.986514E-001	  6.621172E-002	 -3.028013E-001
         0.7452	  1.666920E+002	  0.000000E+000	  3.500000E-001	  0.000000E+000	  1.666920E+002	 -5.097852E-001	  1.685566E-001	 -2.321746E-001	  1.685200E+002	 -4.647339E-001	  1.326672E-001	 -2.054885E-001	  1.709890E+002	 -5.032825E-001	  8.885986E-002	 -2.571639E-001	  1.722050E+002	 -5.986514E-001	  6.621172E-002	 -3.028013E-001
         0.7590	  1.666920E+002	  0.000000E+000	  3.500000E-001	  0.000000E+000	  1.666920E+002	 -5.097852E-001	  1.685566E-001	 -2.321746E-001	  1.685200E+002	 -4.647339E-001	  1.326672E-001	 -2.054885E-001	  1.709890E+002	 -5.032825E-001	  8.885986E-002	 -2.571639E-001	  1.722050E+002	 -5.986514E-001	  6.621172E-002	 -3.028013E-001
         0.7728	  1.666920E+002	  0.000000E+000	  3.500000E-001	  0.000000E+000	  1.666920E+002	 -5.097852E-001	  1.685566E-001	 -2.321746E-001	  1.685200E+002	 -4.647339E-001	  1.326672E-001	 -2.054885E-001	  1.709890E+002	 -5.032825E-001	  8.885986E-002	 -2.571639E-001	  1.722050E+002	 -5.986514E-001	  6.621172E-002	 -3.028013E-001
         0.7866	  1.666920E+002	  0.000000E+000	  3.500000E-001	  0.000000E+000	  1.666920E+002	 -5.097852E-001	  1.685566E-001	 -2.321746E-001	  1.685200E+002	 -4.647339E-001	  1.326672E-001	 -2.054885E-001	  1.709890E+002	 -5.032825E-001	  8.885986E-002	 -2.571639E-001	  1.722050E+002	 -5.986514E-001	  6.621172E-002	 -3.028013E-001
         0.8004	  1.666920E+002	  0.000000E+000	  3.500000E-001	  0.000000E+000	  1.666920E+002	 -5.097852E-001	  1.685566E-001	 -2.321746E-001	  1.685200E+002	 -4.647339E-001	  1.326672E-001	 -2.054885E-001	  1.709890E+002	 -5.032825E-001	  8.885986E-002	 -2.571639E-001	  1.722050E+002	 -5.986514E-001	  6.621172E-002	 -3.028013E-001
         0.8142	  1.666920E+002	  0.000000E+000	  3.500000E-001	  0.000000E+000	  1.666920E+002	 -5.097852E-001	  1.685566E-001	 -2.321746E-001	  1.685200E+002	 -4.647339E-001	  1.326672E-001	 -2.054885E-001	  1.709890E+002	 -5.032825E-001	  8.885986E-002	 -2.571639E-001	  1.722050E+002	 -5.986514E-001	  6.621172E-002	 -3.028013E-001
         0.8280	  1.666920E+002	  0.000000E+000	  3.500000E-001	  0.000000E+000	  1.666920E+002	 -5.097852E-001	  1.685566E-001	 -2.321746E-001	  1.685200E+002	 -4.647339E-001	  1.326672E-001	 -2.054885E-001	  1.709890E+002	 -5.032825E-001	  8.885986E-002	 -2.571639E-001	  1.722050E+002	 -5.986514E-001	  6.621172E-002	 -3.028013E-001
         0.8418	  1.666920E+002	  0.000000E+000	  3.500000E-001	  0.000000E+000	  1.666920E+002	 -5.097852E-001	  1.685566E-001	 -2.321746E-001	  1.685200E+002	 -4.647339E-001	  1.326672E-001	 -2.054885E-001	  1.709890E+002	 -5.032825E-001	  8.885986E-002	 -2.571639E-001	  1.722050E+002	 -5.986514E-001	  6.621172E-002	 -3.028013E-001
         0.8556	  1.666920E+002	  0.000000E+000	  3.500000E-001	  0.000000E+000	  1.666920E+002	 -5.097852E-001	  1.685566E-001	 -2.321746E-001	  1.685200E+002	 -4.647339E-001	  1.326672E-001	 -2.054885E-001	  1.709890E+002	 -5.032825E-001	  8.885986E-002	 -2.571639E-001	  1.722050E+002	 -5.986514E-001	  6.621172E-002	 -3.028013E-001
         0.8694	  1.666920E+002	  0.000000E+000	  3.500000E-001	  0.000000E+000	  1.666920E+002	 -5.097852E-001	  1.685566E-001	 -2.321746E-001	  1.685200E+002	 -4.647339E-001	  1.326672E-001	 -2.054885E-001	  1.709890E+002	 -5.032825E-001	  8.885986E-002	 -2.571639E-001	  1.722050E+002	 -5.986514E-001	  6.621172E-002	 -3.028013E-001
         0.8832	  1.666920E+002	  0.000000E+000	  3.500000E-001	  0.000000E+000	  1.666920E+002	 -5.097852E-001	  1.685566E-001	 -2.321746E-001	  1.685200E+002	 -4.647339E-001	  1.326672E-001	 -2.054885E-001	  1.709890E+002	 -5.032825E-001	  8.885986E-002	 -2.571639E-001	  1.722050E+002	 -5.986514E-001	  6.621172E-002	 -3.028013E-001
         0.8970	  1.666920E+002	  0.000000E+000	  3.500000E-001	  0.000000E+000	  1.666920E+002	 -5.097852E-001	  1.685566E-001	 -2.321746E-001	  1.685200E+002	 -4.647339E-001	  1.326672E-001	 -2.054885E-001	  1.709890E+002	 -5.032825E-001	  8.885986E-002	 -2.571639E-001	  1.722050E+002	 -5.986514E-001	  6.621172E-002	 -3.028013E-001
         0.9108	  1.666920E+002	  0.000000E+000	  3.500000E-001	  0.000000E+000	  1.666920E+002	 -5.097852E-001	  1.685566E-001	 -2.321746E-001	  1.685200E+002	 -4.647339E-001	  1.326672E-001	 -2.054885E-001	  1.709890E+002	 -5.032825E-001	  8.885986E-002	 -2.571639E-001	  1.722050E+002	 -5.986514E-001	  6.621172E-002	 -3.028013E-001
         0.9246	  1.666920E+002	  0.000000E+000	  3.500000E-001	  0.000000E+000	  1.666920E+002	 -5.097852E-001	  1.685566E-001	 -2.321746E-001	  1.685200E+002	 -4.647339E-001	  1.326672E-001	 -2.054885E-001	  1.709890E+002	 -5.032825E-001	  8.885986E-002	 -2.571639E-001	  1.722050E+002	 -5.986514E-001	  6.621172E-002	 -3.028013E-001
         0.9384	  1.666920E+002	  0.000000E+000	  3.500000E-001	  0.000000E+000	  1.666920E+002	 -5.097852E-001	  1.685566E-001	 -2.321746E-001	  1.685200E+002	 -4.647339E-001	  1.326672E-001	 -2.054885E-001	  1.709890E+002	 -5.032825E-001	  8.885986E-002	 -2.571639E-001	  1.722050E+002	 -5.986514E-001	  6.621172E-002	 -3.028013E-001
         0.9522	  1.666920E+002	  0.000000E+000	  3.500000E-001	  0.000000E+000	  1.666920E+002	 -5.097852E-001	  1.685566E-001	 -2.321746E-001	  1.685200E+002	 -4.647339E-001	  1.326672E-001	 -2.054885E-001	  1.709890E+002	 -5.032825E-001	  8.885986E-002	 -2.571639E-001	  1.722050E+002	 -5.986514E-001	  6.621172E-002	 -3.028013E-001
         0.9660	  1.666920E+002	  0.000000E+000	  3.500000E-001	  0.000000E+000	  1.666920E+002	 -5.097852E-001	  1.685566E-001	 -2.321746E-001	  1.685200E+002	 -4.647339E-001	  1.326672E-001	 -2.054885E-001	  1.709890E+002	 -5.032825E-001	  8.885986E-002	 -2.571639E-001	  1.722050E+002	 -5.986514E-001	  6.621172E-002	 -3.028013E-001
         0.9798	  1.666920E+002	  0.000000E+000	  3.500000E-001	  0.000000E+000	  1.666920E+002	 -5.097852E-001	  1.685566E-001	 -2.321746E-001	  1.685200E+002	 -4.647339E-001	  1.326672E-001	 -2.054885E-001	  1.709890E+002	 -5.032825E-001	  8.885986E-002	 -2.571639E-001	  1.722050E+002	 -5.986514E-001	  6.621172E-002	 -3.028013E-001
         0.9936	  1.666920E+002	  0.000000E+000	  3.500000E-001	  0.000000E+000	  1.666920E+002	 -5.097852E-001	  1.685566E-001	 -2.321746E-001	  1.685200E+002	 -4.647339E-001	  1.326672E-001	 -2.054885E-001	  1.709890E+002	 -5.032825E-001	  8.885986E-002	 -2.571639E-001	  1.722050E+002	 -5.986514E-001	  6.621172E-002	 -3.028013E-001
         1.0074	  1.666920E+002	  0.000000E+000	  3.500000E-001	  0.000000E+000	  1.666920E+002	 -5.097852E-001	  1.685566E-001	 -2.321746E-001	  1.685200E+002	 -4.647339E-001	  1.326672E-001	 -2.054885E-001	  1.709890E+002	 -5.032825E-001	  8.885986E-002	 -2.571639E-001	  1.722050E+002	 -5.986514E-001	  6.621172E-002	 -3.028013E-001
         1.0212	  1.666920E+002	  0.000000E+000	  3.500000E-001	  0.000000E+000	  1.666920E+002	 -5.097852E-001	  1.685566E-001	 -2.321746E-001	  1.685200E+002	 -4.647339E-001	  1.326672E-001	 -2.054885E-001	  1.709890E+002	 -5.032825E-001	  8.885986E-002	 -2.571639E-001	  1.722050E+002	 -5.986514E-001	  6.621172E-002	 -3.028013E-001
         1.0350	  1.666920E+002	  0.000000E+000	  3.500000E-001	  0.000000E+000	  1.666920E+002	 -5.097852E-001	  1.685566E-001	 -2.321746E-001	  1.685200E+002	 -4.647339E-001	  1.326672E-001	 -2.054885E-001	  1.709890E+002	 -5.032825E-001	  8.885986E-002	 -2.571639E-001	  1.722050E+002	 -5.986514E-001	  6.621172E-002	 -3.028013E-001
         1.0488	  1.666920E+002	  0.000000E+000	  3.500000E-001	  0.000000E+000	  1.666920E+002	 -5.097852E-001	  1.685566E-001	 -2.321746E-001	  1.685200E+002	 -4.647339E-001	  1.326672E-001	 -2.054885E-001	  1.709890E+002	 -5.032825E-001	  8.885986E-002	 -2.571639E-001	  1.722050E+002	 -5.986514E-001	  6.621172E-002	 -3.028013E-001
         1.0626	  1.666920E+002	  0.000000E+000	  3.500000E-001	  0.000000E+000	  1.666920E+002	 -5.097852E-001	  1.685566E-001	 -2.321746E-001	  1.685200E+002	 -4.647339E-001	  1.326672E-001	 -2.054885E-001	  1.709890E+002	 -5.032825E-001	  8.885986E-002	 -2.571639E-001	  1.722050E+002	 -5.986514E-001	  6.621172E-002	 -3.028013E-001
         1.0764	  1.666920E+002	  0.000000E+000	  3.500000E-001	  0.000000E+000	  1.666920E+002	 -5.097852E-001	  1.685566E-001	 -2.321746E-001	  1.685200E+002	 -4.647339E-001	  1.326672E-001	 -2.054885E-001	  1.709890E+002	 -5.032825E-001	  8.885986E-002	 -2.571639E-001	  1.722050E+002	 -5.986514E-001	  6.621172E-002	 -3.028013E-001
         1.0902	  1.666920E+002	  0.000000E+000	  3.500000E-001	  0.000000E+000	  1.666920E+002	 -5.097852E-001	  1.685566E-001	 -2.321746E-001	  1.685200E+002	 -4.647339E-001	  1.326672E-001	 -2.054885E-001	  1.709890E+002	 -5.032825E-001	  8.885986E-002	 -2.571639E-001	  1.722050E+002	 -5.986514E-001	  6.621172E-002	 -3.028013E-001
         1.1040	  1.666920E+002	  0.000000E+000	  3.500000E-001	  0.000000E+000	  1.666920E+002	 -5.097852E-001	  1.685566E-001	 -2.321746E-001	  1.685200E+002	 -4.647339E-001	  1.326672E-001	 -2.054885E-001	  1.709890E+002	 -5.032825E-001	  8.885986E-002	 -2.571639E-001	  1.722050E+002	 -5.986514E-001	  6.621172E-002	 -3.028013E-001
         1.1178	  1.666920E+002	  0.000000E+000	  3.500000E-001	  0.000000E+000	  1.666920E+002	 -5.097852E-001	  1.685566E-001	 -2.321746E-001	  1.685200E+002	 -4.647339E-001	  1.326672E-001	 -2.054885E-001	  1.709890E+002	 -5.032825E-001	  8.885986E-002	 -2.571639E-001	  1.722050E+002	 -5.986514E-001	  6.621172E-002	 -3.028013E-001
         1.1316	  1.666920E+002	  0.000000E+000	  3.500000E-001	  0.000000E+000	  1.666920E+002	 -5.097852E-001	  1.685566E-001	 -2.321746E-001	  1.685200E+002	 -4.647339E-001	  1.326672E-001	 -2.054885E-001	  1.709890E+002	 -5.032825E-001	  8.885986E-002	 -2.571639E-001	  1.722050E+002	 -5.986514E-001	  6.621172E-002	 -3.028013E-001
         1.1454	  1.666920E+002	  0.000000E+000	  3.500000E-001	  0.000000E+000	  1.666920E+002	 -5.097852E-001	  1.685566E-001	 -2.321746E-001	  1.685200E+002	 -4.647339E-001	  1.326672E-001	 -2.054885E-001	  1.709890E+002	 -5.032825E-001	  8.885986E-002	 -2.571639E-001	  1.722050E+002	 -5.986514E-001	  6.621172E-002	 -3.028013E-001
         1.1592	  1.666920E+002	  0.000000E+000	  3.500000E-001	  0.000000E+000	  1.666920E+002	 -5.097852E-001	  1.685566E-001	 -2.321746E-001	  1.685200E+002	 -4.647339E-001	  1.326672E-001	 -2.054885E-001	  1.709890E+002	 -5.032825E-001	  8.885986E-002	 -2.571639E-001	  1.722050E+002	 -5.986514E-001	  6.621172E-002	 -3.028013E-001
         1.1730	  1.666920E+002	  0.000000E+000	  3.500000E-001	  0.000000E+000	  1.666920E+002	 -5.097852E-001	  1.685566E-001	 -2.321746E-001	  1.685200E+002	 -4.647339E-001	  1.326672E-001	 -2.054885E-001	  1.709890E+002	 -5.032825E-001	  8.885986E-002	 -2.571639E-001	  1.722050E+002	 -5.986514E-001	  6.621172E-002	 -3.028013E-001
         1.1868	  1.666920E+002	  0.000000E+000	  3.500000E-001	  0.000000E+000	  1.666920E+002	 -5.097852E-001	  1.685566E-001	 -2.321746E-001	  1.685200E+002	 -4.647339E-001	  1.326672E-001	 -2.054885E-001	  1.709890E+002	 -5.032825E-001	  8.885986E-002	 -2.571639E-001	  1.722050E+002	 -5.986514E-001	  6.621172E-002	 -3.028013E-001