
Predictions were generated on 18-Jun-2018 at 09:50:48 using AeroDyn_Wrapper
 AeroDyn

Case 1: WndSpeed=0 m/s; ShearExp=0 ; RotSpeed=12.1 rpm; Pitch=0 deg; Yaw=20 deg; dT=0.138 s; Tmax=12.793 s

     Time           	B1N1Alpha 	B1N1Cl    	B1N1Cd    	B1N1Cm    	B1N2Alpha 	B1N2Cl    	B1N2Cd    	B1N2Cm    	B1N3Alpha 	B1N3Cl    	B1N3Cd    	B1N3Cm    	B1N4Alpha 	B1N4Cl    	B1N4Cd    	B1N4Cm    	B1N5Alpha 	B1N5Cl    	B1N5Cd    	B1N5Cm    
      (s)           	(deg)     	(-)       	(-)       	(-)       	(deg)     	(-)       	(-)       	(-)       	(deg)     	(-)       	(-)       	(-)       	(deg)     	(-)       	(-)       	(-)       	(deg)     	(-)       	(-)       	(-)       
         0.0000	  1.666920E+002	  0.000000E+000	  3.500000E-001	  0.000000E+000	  1.666920E+002	 -5.097852E-001	  1.685566E-001	 -2.321746E-001	  1.685200E+002	 -4.647339E-001	  1.326672E-001	 -2.054885E-001	  1.709890E+002	 -5.032825E-001	  8.885986E-002	 -2.571639E-001	  1.722050E+002	 -5.986514E-001	  6.621172E-002	 -3.028013E-001
         0.1380	  1.666920E+002	  0.000000E+000	  3.500000E-001	  0.000000E+000	  1.666920E+002	 -5.097852E-001	  1.685566E-001	  0.000000E+000	  1.685200E+002	 -4.647339E-001	  1.326672E-001	  0.000000E+000	  1.709890E+002	 -5.032825E-001	  8.885986E-002	  0.000000E+000	  1.722050E+002	 -5.986514E-001	  6.621172E-002	  0.000000E+000
         0.2760	  1.666920E+002	  0.000000E+000	  3.500000E-001	  0.000000E+000	  1.666920E+002	 -5.097852E-001	  1.685566E-001	 -2.321746E-001	  1.685200E+002	 -4.647339E-001	  1.326672E-001	 -2.054885E-001	  1.709890E+002	 -5.032825E-001	  8.885986E-002	 -2.571639E-001	  1.722050E+002	 -5.986514E-001	  6.621172E-002	 -3.028013E-001
         0.4140	  1.666920E+002	  0.000000E+000	  3.500000E-001	  0.000000E+000	  1.666920E+002	 -5.097852E-001	  1.685566E-001	 -2.321746E-001	  1.685200E+002	 -4.647339E-001	  1.326672E-001	 -2.054885E-001	  1.709890E+002	 -5.032825E-001	  8.885986E-002	 -2.571639E-001	  1.722050E+002	 -5.986514E-001	  6.621172E-002	 -3.028013E-001
         0.5520	  1.666920E+002	  0.000000E+000	  3.500000E-001	  0.000000E+000	  1.666920E+002	 -5.097852E-001	  1.685566E-001	 -2.321746E-001	  1.685200E+002	 -4.647339E-001	  1.326672E-001	 -2.054885E-001	  1.709890E+002	 -5.032825E-001	  8.885986E-002	 -2.571639E-001	  1.722050E+002	 -5.986514E-001	  6.621172E-002	 -3.028013E-001
         0.6900	  1.666920E+002	  0.000000E+000	  3.500000E-001	  0.000000E+000	  1.666920E+002	 -5.097852E-001	  1.685566E-001	 -2.321746E-001	  1.685200E+002	 -4.647339E-001	  1.326672E-001	 -2.054885E-001	  1.709890E+002	 -5.032825E-001	  8.885986E-002	 -2.571639E-001	  1.722050E+002	 -5.986514E-001	  6.621172E-002	 -3.028013E-001
         0.8280	  1.666920E+002	  0.000000E+000	  3.500000E-001	  0.000000E+000	  1.666920E+002	 -5.097852E-001	  1.685566E-001	 -2.321746E-001	  1.685200E+002	 -4.647339E-001	  1.326672E-001	 -2.054885E-001	  1.709890E+002	 -5.032825E-001	  8.885986E-002	 -2.571639E-001	  1.722050E+002	 -5.986514E-001	  6.621172E-002	 -3.028013E-001
         0.9660	  1.666920E+002	  0.000000E+000	  3.500000E-001	  0.000000E+000	  1.666920E+002	 -5.097852E-001	  1.685566E-001	 -2.321746E-001	  1.685200E+002	 -4.647339E-001	  1.326672E-001	 -2.054885E-001	  1.709890E+002	 -5.032825E-001	  8.885986E-002	 -2.571639E-001	  1.722050E+002	 -5.986514E-001	  6.621172E-002	 -3.028013E-001
         1.1040	  1.666920E+002	  0.000000E+000	  3.500000E-001	  0.000000E+000	  1.666920E+002	 -5.097852E-001	  1.685566E-001	 -2.321746E-001	  1.685200E+002	 -4.647339E-001	  1.326672E-001	 -2.054885E-001	  1.709890E+002	 -5.032825E-001	  8.885986E-002	 -2.571639E-001	  1.722050E+002	 -5.986514E-001	  6.621172E-002	 -3.028013E-001
         1.2420	  1.666920E+002	  0.000000E+000	  3.500000E-001	  0.000000E+000	  1.666920E+002	 -5.097852E-001	  1.685566E-001	 -2.321746E-001	  1.685200E+002	 -4.647339E-001	  1.326672E-001	 -2.054885E-001	  1.709890E+002	 -5.032825E-001	  8.885986E-002	 -2.571639E-001	  1.722050E+002	 -5.986514E-001	  6.621172E-002	 -3.028013E-001
         1.3800	  1.666920E+002	  0.000000E+000	  3.500000E-001	  0.000000E+000	  1.666920E+002	 -5.097852E-001	  1.685566E-001	 -2.321746E-001	  1.685200E+002	 -4.647339E-001	  1.326672E-001	 -2.054885E-001	  1.709890E+002	 -5.032825E-001	  8.885986E-002	 -2.571639E-001	  1.722050E+002	 -5.986514E-001	  6.621172E-002	 -3.028013E-001
         1.5180	  1.666920E+002	  0.000000E+000	  3.500000E-001	  0.000000E+000	  1.666920E+002	 -5.097852E-001	  1.685566E-001	 -2.321746E-001	  1.685200E+002	 -4.647339E-001	  1.326672E-001	 -2.054885E-001	  1.709890E+002	 -5.032825E-001	  8.885986E-002	 -2.571639E-001	  1.722050E+002	 -5.986514E-001	  6.621172E-002	 -3.028013E-001
         1.6560	  1.666920E+002	  0.000000E+000	  3.500000E-001	  0.000000E+000	  1.666920E+002	 -5.097852E-001	  1.685566E-001	 -2.321746E-001	  1.685200E+002	 -4.647339E-001	  1.326672E-001	 -2.054885E-001	  1.709890E+002	 -5.032825E-001	  8.885986E-002	 -2.571639E-001	  1.722050E+002	 -5.986514E-001	  6.621172E-002	 -3.028013E-001
         1.7940	  1.666920E+002	  0.000000E+000	  3.500000E-001	  0.000000E+000	  1.666920E+002	 -5.097852E-001	  1.685566E-001	 -2.321746E-001	  1.685200E+002	 -4.647339E-001	  1.326672E-001	 -2.054885E-001	  1.709890E+002	 -5.032825E-001	  8.885986E-002	 -2.571639E-001	  1.722050E+002	 -5.986514E-001	  6.621172E-002	 -3.028013E-001
         1.9320	  1.666920E+002	  0.000000E+000	  3.500000E-001	  0.000000E+000	  1.666920E+002	 -5.097852E-001	  1.685566E-001	 -2.321746E-001	  1.685200E+002	 -4.647339E-001	  1.326672E-001	 -2.054885E-001	  1.709890E+002	 -5.032825E-001	  8.885986E-002	 -2.571639E-001	  1.722050E+002	 -5.986514E-001	  6.621172E-002	 -3.028013E-001
         2.0700	  1.666920E+002	  0.000000E+000	  3.500000E-001	  0.000000E+000	  1.666920E+002	 -5.097852E-001	  1.685566E-001	 -2.321746E-001	  1.685200E+002	 -4.647339E-001	  1.326672E-001	 -2.054885E-001	  1.709890E+002	 -5.032825E-001	  8.885986E-002	 -2.571639E-001	  1.722050E+002	 -5.986514E-001	  6.621172E-002	 -3.028013E-001
         2.2080	  1.666920E+002	  0.000000E+000	  3.500000E-001	  0.000000E+000	  1.666920E+002	 -5.097852E-001	  1.685566E-001	 -2.321746E-001	  1.685200E+002	 -4.647339E-001	  1.326672E-001	 -2.054885E-001	  1.709890E+002	 -5.032825E-001	  8.885986E-002	 -2.571639E-001	  1.722050E+002	 -5.986514E-001	  6.621172E-002	 -3.028013E-001
         2.3460	  1.666920E+002	  0.000000E+000	  3.500000E-001	  0.000000E+000	  1.666920E+002	 -5.097852E-001	  1.685566E-001	 -2.321746E-001	  1.685200E+002	 -4.647339E-001	  1.326672E-001	 -2.054885E-001	  1.709890E+002	 -5.032825E-001	  8.885986E-002	 -2.571639E-001	  1.722050E+002	 -5.986514E-001	  6.621172E-002	 -3.028013E-001
         2.4840	  1.666920E+002	  0.000000E+000	  3.500000E-001	  0.000000E+000	  1.666920E+002	 -5.097852E-001	  1.685566E-001	 -2.321746E-001	  1.685200E+002	 -4.647339E-001	  1.326672E-001	 -2.054885E-001	  1.709890E+002	 -5.032825E-001	  8.885986E-002	 -2.571639E-001	  1.722050E+002	 -5.986514E-001	  6.621172E-002	 -3.028013E-001
         2.6220	  1.666920E+002	  0.000000E+000	  3.500000E-001	  0.000000E+000	  1.666920E+002	 -5.097852E-001	  1.685566E-001	 -2.321746E-001	  1.685200E+002	 -4.647339E-001	  1.326672E-001	 -2.054885E-001	  1.709890E+002	 -5.032825E-001	  8.885986E-002	 -2.571639E-001	  1.722050E+002	 -5.986514E-001	  6.621172E-002	 -3.028013E-001
         2.7600	  1.666920E+002	  0.000000E+000	  3.500000E-001	  0.000000E+000	  1.666920E+002	 -5.097852E-001	  1.685566E-001	 -2.321746E-001	  1.685200E+002	 -4.647339E-001	  1.326672E-001	 -2.054885E-001	  1.709890E+002	 -5.032825E-001	  8.885986E-002	 -2.571639E-001	  1.722050E+002	 -5.986514E-001	  6.621172E-002	 -3.028013E-001
         2.8980	  1.666920E+002	  0.000000E+000	  3.500000E-001	  0.000000E+000	  1.666920E+002	 -5.097852E-001	  1.685566E-001	 -2.321746E-001	  1.685200E+002	 -4.647339E-001	  1.326672E-001	 -2.054885E-001	  1.709890E+002	 -5.032825E-001	  8.885986E-002	 -2.571639E-001	  1.722050E+002	 -5.986514E-001	  6.621172E-002	 -3.028013E-001
         3.0360	  1.666920E+002	  0.000000E+000	  3.500000E-001	  0.000000E+000	  1.666920E+002	 -5.097852E-001	  1.685566E-001	 -2.321746E-001	  1.685200E+002	 -4.647339E-001	  1.326672E-001	 -2.054885E-001	  1.709890E+002	 -5.032825E-001	  8.885986E-002	 -2.571639E-001	  1.722050E+002	 -5.986514E-001	  6.621172E-002	 -3.028013E-001
         3.1740	  1.666920E+002	  0.000000E+000	  3.500000E-001	  0.000000E+000	  1.666920E+002	 -5.097852E-001	  1.685566E-001	 -2.321746E-001	  1.685200E+002	 -4.647339E-001	  1.326672E-001	 -2.054885E-001	  1.709890E+002	 -5.032825E-001	  8.885986E-002	 -2.571639E-001	  1.722050E+002	 -5.986514E-001	  6.621172E-002	 -3.028013E-001
         3.3120	  1.666920E+002	  0.000000E+000	  3.500000E-001	  0.000000E+000	  1.666920E+002	 -5.097852E-001	  1.685566E-001	 -2.321746E-001	  1.685200E+002	 -4.647339E-001	  1.326672E-001	 -2.054885E-001	  1.709890E+002	 -5.032825E-001	  8.885986E-002	 -2.571639E-001	  1.722050E+002	 -5.986514E-001	  6.621172E-002	 -3.028013E-001
         3.4500	  1.666920E+002	  0.000000E+000	  3.500000E-001	  0.000000E+000	  1.666920E+002	 -5.097852E-001	  1.685566E-001	 -2.321746E-001	  1.685200E+002	 -4.647339E-001	  1.326672E-001	 -2.054885E-001	  1.709890E+002	 -5.032825E-001	  8.885986E-002	 -2.571639E-001	  1.722050E+002	 -5.986514E-001	  6.621172E-002	 -3.028013E-001
         3.5880	  1.666920E+002	  0.000000E+000	  3.500000E-001	  0.000000E+000	  1.666920E+002	 -5.097852E-001	  1.685566E-001	 -2.321746E-001	  1.685200E+002	 -4.647339E-001	  1.326672E-001	 -2.054885E-001	  1.709890E+002	 -5.032825E-001	  8.885986E-002	 -2.571639E-001	  1.722050E+002	 -5.986514E-001	  6.621172E-002	 -3.028013E-001
         3.7260	  1.666920E+002	  0.000000E+000	  3.500000E-001	  0.000000E+000	  1.666920E+002	 -5.097852E-001	  1.685566E-001	 -2.321746E-001	  1.685200E+002	 -4.647339E-001	  1.326672E-001	 -2.054885E-001	  1.709890E+002	 -5.032825E-001	  8.885986E-002	 -2.571639E-001	  1.722050E+002	 -5.986514E-001	  6.621172E-002	 -3.028013E-001
         3.8640	  1.666920E+002	  0.000000E+000	  3.500000E-001	  0.000000E+000	  1.666920E+002	 -5.097852E-001	  1.685566E-001	 -2.321746E-001	  1.685200E+002	 -4.647339E-001	  1.326672E-001	 -2.054885E-001	  1.709890E+002	 -5.032825E-001	  8.885986E-002	 -2.571639E-001	  1.722050E+002	 -5.986514E-001	  6.621172E-002	 -3.028013E-001
         4.0020	  1.666920E+002	  0.000000E+000	  3.500000E-001	  0.000000E+000	  1.666920E+002	 -5.097852E-001	  1.685566E-001	 -2.321746E-001	  1.685200E+002	 -4.647339E-001	  1.326672E-001	 -2.054885E-001	  1.709890E+002	 -5.032825E-001	  8.885986E-002	 -2.571639E-001	  1.722050E+002	 -5.986514E-001	  6.621172E-002	 -3.028013E-001
         4.1400	  1.666920E+002	  0.000000E+000	  3.500000E-001	  0.000000E+000	  1.666920E+002	 -5.097852E-001	  1.685566E-001	 -2.321746E-001	  1.685200E+002	 -4.647339E-001	  1.326672E-001	 -2.054885E-001	  1.709890E+002	 -5.032825E-001	  8.885986E-002	 -2.571639E-001	  1.722050E+002	 -5.986514E-001	  6.621172E-002	 -3.028013E-001
         4.2780	  1.666920E+002	  0.000000E+000	  3.500000E-001	  0.000000E+000	  1.666920E+002	 -5.097852E-001	  1.685566E-001	 -2.321746E-001	  1.685200E+002	 -4.647339E-001	  1.326672E-001	 -2.054885E-001	  1.709890E+002	 -5.032825E-001	  8.885986E-002	 -2.571639E-001	  1.722050E+002	 -5.986514E-001	  6.621172E-002	 -3.028013E-001
         4.4160	  1.666920E+002	  0.000000E+000	  3.500000E-001	  0.000000E+000	  1.666920E+002	 -5.097852E-001	  1.685566E-001	 -2.321746E-001	  1.685200E+002	 -4.647339E-001	  1.326672E-001	 -2.054885E-001	  1.709890E+002	 -5.032825E-001	  8.885986E-002	 -2.571639E-001	  1.722050E+002	 -5.986514E-001	  6.621172E-002	 -3.028013E-001
         4.5540	  1.666920E+002	  0.000000E+000	  3.500000E-001	  0.000000E+000	  1.666920E+002	 -5.097852E-001	  1.685566E-001	 -2.321746E-001	  1.685200E+002	 -4.647339E-001	  1.326672E-001	 -2.054885E-001	  1.709890E+002	 -5.032825E-001	  8.885986E-002	 -2.571639E-001	  1.722050E+002	 -5.986514E-001	  6.621172E-002	 -3.028013E-001
         4.6920	  1.666920E+002	  0.000000E+000	  3.500000E-001	  0.000000E+000	  1.666920E+002	 -5.097852E-001	  1.685566E-001	 -2.321746E-001	  1.685200E+002	 -4.647339E-001	  1.326672E-001	 -2.054885E-001	  1.709890E+002	 -5.032825E-001	  8.885986E-002	 -2.571639E-001	  1.722050E+002	 -5.986514E-001	  6.621172E-002	 -3.028013E-001
         4.8300	  1.666920E+002	  0.000000E+000	  3.500000E-001	  0.000000E+000	  1.666920E+002	 -5.097852E-001	  1.685566E-001	 -2.321746E-001	  1.685200E+002	 -4.647339E-001	  1.326672E-001	 -2.054885E-001	  1.709890E+002	 -5.032825E-001	  8.885986E-002	 -2.571639E-001	  1.722050E+002	 -5.986514E-001	  6.621172E-002	 -3.028013E-001
         4.9680	  1.666920E+002	  0.000000E+000	  3.500000E-001	  0.000000E+000	  1.666920E+002	 -5.097852E-001	  1.685566E-001	 -2.321746E-001	  1.685200E+002	 -4.647339E-001	  1.326672E-001	 -2.054885E-001	  1.709890E+002	 -5.032825E-001	  8.885986E-002	 -2.571639E-001	  1.722050E+002	 -5.986514E-001	  6.621172E-002	 -3.028013E-001
         5.1060	  1.666920E+002	  0.000000E+000	  3.500000E-001	  0.000000E+000	  1.666920E+002	 -5.097852E-001	  1.685566E-001	 -2.321746E-001	  1.685200E+002	 -4.647339E-001	  1.326672E-001	 -2.054885E-001	  1.709890E+002	 -5.032825E-001	  8.885986E-002	 -2.571639E-001	  1.722050E+002	 -5.986514E-001	  6.621172E-002	 -3.028013E-001
         5.2440	  1.666920E+002	  0.000000E+000	  3.500000E-001	  0.000000E+000	  1.666920E+002	 -5.097852E-001	  1.685566E-001	 -2.321746E-001	  1.685200E+002	 -4.647339E-001	  1.326672E-001	 -2.054885E-001	  1.709890E+002	 -5.032825E-001	  8.885986E-002	 -2.571639E-001	  1.722050E+002	 -5.986514E-001	  6.621172E-002	 -3.028013E-001
         5.3820	  1.666920E+002	  0.000000E+000	  3.500000E-001	  0.000000E+000	  1.666920E+002	 -5.097852E-001	  1.685566E-001	 -2.321746E-001	  1.685200E+002	 -4.647339E-001	  1.326672E-001	 -2.054885E-001	  1.709890E+002	 -5.032825E-001	  8.885986E-002	 -2.571639E-001	  1.722050E+002	 -5.986514E-001	  6.621172E-002	 -3.028013E-001
         5.5200	  1.666920E+002	  0.000000E+000	  3.500000E-001	  0.000000E+000	  1.666920E+002	 -5.097852E-001	  1.685566E-001	 -2.321746E-001	  1.685200E+002	 -4.647339E-001	  1.326672E-001	 -2.054885E-001	  1.709890E+002	 -5.032825E-001	  8.885986E-002	 -2.571639E-001	  1.722050E+002	 -5.986514E-001	  6.621172E-002	 -3.028013E-001
         5.6580	  1.666920E+002	  0.000000E+000	  3.500000E-001	  0.000000E+000	  1.666920E+002	 -5.097852E-001	  1.685566E-001	 -2.321746E-001	  1.685200E+002	 -4.647339E-001	  1.326672E-001	 -2.054885E-001	  1.709890E+002	 -5.032825E-001	  8.885986E-002	 -2.571639E-001	  1.722050E+002	 -5.986514E-001	  6.621172E-002	 -3.028013E-001
         5.7960	  1.666920E+002	  0.000000E+000	  3.500000E-001	  0.000000E+000	  1.666920E+002	 -5.097852E-001	  1.685566E-001	 -2.321746E-001	  1.685200E+002	 -4.647339E-001	  1.326672E-001	 -2.054885E-001	  1.709890E+002	 -5.032825E-001	  8.885986E-002	 -2.571639E-001	  1.722050E+002	 -5.986514E-001	  6.621172E-002	 -3.028013E-001
         5.9340	  1.666920E+002	  0.000000E+000	  3.500000E-001	  0.000000E+000	  1.666920E+002	 -5.097852E-001	  1.685566E-001	 -2.321746E-001	  1.685200E+002	 -4.647339E-001	  1.326672E-001	 -2.054885E-001	  1.709890E+002	 -5.032825E-001	  8.885986E-002	 -2.571639E-001	  1.722050E+002	 -5.986514E-001	  6.621172E-002	 -3.028013E-001
         6.0720	  1.666920E+002	  0.000000E+000	  3.500000E-001	  0.000000E+000	  1.666920E+002	 -5.097852E-001	  1.685566E-001	 -2.321746E-001	  1.685200E+002	 -4.647339E-001	  1.326672E-001	 -2.054885E-001	  1.709890E+002	 -5.032825E-001	  8.885986E-002	 -2.571639E-001	  1.722050E+002	 -5.986514E-001	  6.621172E-002	 -3.028013E-001
         6.2100	  1.666920E+002	  0.000000E+000	  3.500000E-001	  0.000000E+000	  1.666920E+002	 -5.097852E-001	  1.685566E-001	 -2.321746E-001	  1.685200E+002	 -4.647339E-001	  1.326672E-001	 -2.054885E-001	  1.709890E+002	 -5.032825E-001	  8.885986E-002	 -2.571639E-001	  1.722050E+002	 -5.986514E-001	  6.621172E-002	 -3.028013E-001
         6.3480	  1.666920E+002	  0.000000E+000	  3.500000E-001	  0.000000E+000	  1.666920E+002	 -5.097852E-001	  1.685566E-001	 -2.321746E-001	  1.685200E+002	 -4.647339E-001	  1.326672E-001	 -2.054885E-001	  1.709890E+002	 -5.032825E-001	  8.885986E-002	 -2.571639E-001	  1.722050E+002	 -5.986514E-001	  6.621172E-002	 -3.028013E-001
         6.4860	  1.666920E+002	  0.000000E+000	  3.500000E-001	  0.000000E+000	  1.666920E+002	 -5.097852E-001	  1.685566E-001	 -2.321746E-001	  1.685200E+002	 -4.647339E-001	  1.326672E-001	 -2.054885E-001	  1.709890E+002	 -5.032825E-001	  8.885986E-002	 -2.571639E-001	  1.722050E+002	 -5.986514E-001	  6.621172E-002	 -3.028013E-001
         6.6240	  1.666920E+002	  0.000000E+000	  3.500000E-001	  0.000000E+000	  1.666920E+002	 -5.097852E-001	  1.685566E-001	 -2.321746E-001	  1.685200E+002	 -4.647339E-001	  1.326672E-001	 -2.054885E-001	  1.709890E+002	 -5.032825E-001	  8.885986E-002	 -2.571639E-001	  1.722050E+002	 -5.986514E-001	  6.621172E-002	 -3.028013E-001
         6.7620	  1.666920E+002	  0.000000E+000	  3.500000E-001	  0.000000E+000	  1.666920E+002	 -5.097852E-001	  1.685566E-001	 -2.321746E-001	  1.685200E+002	 -4.647339E-001	  1.326672E-001	 -2.054885E-001	  1.709890E+002	 -5.032825E-001	  8.885986E-002	 -2.571639E-001	  1.722050E+002	 -5.986514E-001	  6.621172E-002	 -3.028013E-001
         6.9000	  1.666920E+002	  0.000000E+000	  3.500000E-001	  0.000000E+000	  1.666920E+002	 -5.097852E-001	  1.685566E-001	 -2.321746E-001	  1.685200E+002	 -4.647339E-001	  1.326672E-001	 -2.054885E-001	  1.709890E+002	 -5.032825E-001	  8.885986E-002	 -2.571639E-001	  1.722050E+002	 -5.986514E-001	  6.621172E-002	 -3.028013E-001
         7.0380	  1.666920E+002	  0.000000E+000	  3.500000E-001	  0.000000E+000	  1.666920E+002	 -5.097852E-001	  1.685566E-001	 -2.321746E-001	  1.685200E+002	 -4.647339E-001	  1.326672E-001	 -2.054885E-001	  1.709890E+002	 -5.032825E-001	  8.885986E-002	 -2.571639E-001	  1.722050E+002	 -5.986514E-001	  6.621172E-002	 -3.028013E-001
         7.1760	  1.666920E+002	  0.000000E+000	  3.500000E-001	  0.000000E+000	  1.666920E+002	 -5.097852E-001	  1.685566E-001	 -2.321746E-001	  1.685200E+002	 -4.647339E-001	  1.326672E-001	 -2.054885E-001	  1.709890E+002	 -5.032825E-001	  8.885986E-002	 -2.571639E-001	  1.722050E+002	 -5.986514E-001	  6.621172E-002	 -3.028013E-001
         7.3140	  1.666920E+002	  0.000000E+000	  3.500000E-001	  0.000000E+000	  1.666920E+002	 -5.097852E-001	  1.685566E-001	 -2.321746E-001	  1.685200E+002	 -4.647339E-001	  1.326672E-001	 -2.054885E-001	  1.709890E+002	 -5.032825E-001	  8.885986E-002	 -2.571639E-001	  1.722050E+002	 -5.986514E-001	  6.621172E-002	 -3.028013E-001
         7.4520	  1.666920E+002	  0.000000E+000	  3.500000E-001	  0.000000E+000	  1.666920E+002	 -5.097852E-001	  1.685566E-001	 -2.321746E-001	  1.685200E+002	 -4.647339E-001	  1.326672E-001	 -2.054885E-001	  1.709890E+002	 -5.032825E-001	  8.885986E-002	 -2.571639E-001	  1.722050E+002	 -5.986514E-001	  6.621172E-002	 -3.028013E-001
         7.5900	  1.666920E+002	  0.000000E+000	  3.500000E-001	  0.000000E+000	  1.666920E+002	 -5.097852E-001	  1.685566E-001	 -2.321746E-001	  1.685200E+002	 -4.647339E-001	  1.326672E-001	 -2.054885E-001	  1.709890E+002	 -5.032825E-001	  8.885986E-002	 -2.571639E-001	  1.722050E+002	 -5.986514E-001	  6.621172E-002	 -3.028013E-001
         7.7280	  1.666920E+002	  0.000000E+000	  3.500000E-001	  0.000000E+000	  1.666920E+002	 -5.097852E-001	  1.685566E-001	 -2.321746E-001	  1.685200E+002	 -4.647339E-001	  1.326672E-001	 -2.054885E-001	  1.709890E+002	 -5.032825E-001	  8.885986E-002	 -2.571639E-001	  1.722050E+002	 -5.986514E-001	  6.621172E-002	 -3.028013E-001
         7.8660	  1.666920E+002	  0.000000E+000	  3.500000E-001	  0.000000E+000	  1.666920E+002	 -5.097852E-001	  1.685566E-001	 -2.321746E-001	  1.685200E+002	 -4.647339E-001	  1.326672E-001	 -2.054885E-001	  1.709890E+002	 -5.032825E-001	  8.885986E-002	 -2.571639E-001	  1.722050E+002	 -5.986514E-001	  6.621172E-002	 -3.028013E-001
         8.0040	  1.666920E+002	  0.000000E+000	  3.500000E-001	  0.000000E+000	  1.666920E+002	 -5.097852E-001	  1.685566E-001	 -2.321746E-001	  1.685200E+002	 -4.647339E-001	  1.326672E-001	 -2.054885E-001	  1.709890E+002	 -5.032825E-001	  8.885986E-002	 -2.571639E-001	  1.722050E+002	 -5.986514E-001	  6.621172E-002	 -3.028013E-001
         8.1420	  1.666920E+002	  0.000000E+000	  3.500000E-001	  0.000000E+000	  1.666920E+002	 -5.097852E-001	  1.685566E-001	 -2.321746E-001	  1.685200E+002	 -4.647339E-001	  1.326672E-001	 -2.054885E-001	  1.709890E+002	 -5.032825E-001	  8.885986E-002	 -2.571639E-001	  1.722050E+002	 -5.986514E-001	  6.621172E-002	 -3.028013E-001
         8.2800	  1.666920E+002	  0.000000E+000	  3.500000E-001	  0.000000E+000	  1.666920E+002	 -5.097852E-001	  1.685566E-001	 -2.321746E-001	  1.685200E+002	 -4.647339E-001	  1.326672E-001	 -2.054885E-001	  1.709890E+002	 -5.032825E-001	  8.885986E-002	 -2.571639E-001	  1.722050E+002	 -5.986514E-001	  6.621172E-002	 -3.028013E-001
         8.4180	  1.666920E+002	  0.000000E+000	  3.500000E-001	  0.000000E+000	  1.666920E+002	 -5.097852E-001	  1.685566E-001	 -2.321746E-001	  1.685200E+002	 -4.647339E-001	  1.326672E-001	 -2.054885E-001	  1.709890E+002	 -5.032825E-001	  8.885986E-002	 -2.571639E-001	  1.722050E+002	 -5.986514E-001	  6.621172E-002	 -3.028013E-001
         8.5560	  1.666920E+002	  0.000000E+000	  3.500000E-001	  0.000000E+000	  1.666920E+002	 -5.097852E-001	  1.685566E-001	 -2.321746E-001	  1.685200E+002	 -4.647339E-001	  1.326672E-001	 -2.054885E-001	  1.709890E+002	 -5.032825E-001	  8.885986E-002	 -2.571639E-001	  1.722050E+002	 -5.986514E-001	  6.621172E-002	 -3.028013E-001
         8.6940	  1.666920E+002	  0.000000E+000	  3.500000E-001	  0.000000E+000	  1.666920E+002	 -5.097852E-001	  1.685566E-001	 -2.321746E-001	  1.685200E+002	 -4.647339E-001	  1.326672E-001	 -2.054885E-001	  1.709890E+002	 -5.032825E-001	  8.885986E-002	 -2.571639E-001	  1.722050E+002	 -5.986514E-001	  6.621172E-002	 -3.028013E-001
         8.8320	  1.666920E+002	  0.000000E+000	  3.500000E-001	  0.000000E+000	  1.666920E+002	 -5.097852E-001	  1.685566E-001	 -2.321746E-001	  1.685200E+002	 -4.647339E-001	  1.326672E-001	 -2.054885E-001	  1.709890E+002	 -5.032825E-001	  8.885986E-002	 -2.571639E-001	  1.722050E+002	 -5.986514E-001	  6.621172E-002	 -3.028013E-001
         8.9700	  1.666920E+002	  0.000000E+000	  3.500000E-001	  0.000000E+000	  1.666920E+002	 -5.097852E-001	  1.685566E-001	 -2.321746E-001	  1.685200E+002	 -4.647339E-001	  1.326672E-001	 -2.054885E-001	  1.709890E+002	 -5.032825E-001	  8.885986E-002	 -2.571639E-001	  1.722050E+002	 -5.986514E-001	  6.621172E-002	 -3.028013E-001
         9.1080	  1.666920E+002	  0.000000E+000	  3.500000E-001	  0.000000E+000	  1.666920E+002	 -5.097852E-001	  1.685566E-001	 -2.321746E-001	  1.685200E+002	 -4.647339E-001	  1.326672E-001	 -2.054885E-001	  1.709890E+002	 -5.032825E-001	  8.885986E-002	 -2.571639E-001	  1.722050E+002	 -5.986514E-001	  6.621172E-002	 -3.028013E-001
         9.2460	  1.666920E+002	  0.000000E+000	  3.500000E-001	  0.000000E+000	  1.666920E+002	 -5.097852E-001	  1.685566E-001	 -2.321746E-001	  1.685200E+002	 -4.647339E-001	  1.326672E-001	 -2.054885E-001	  1.709890E+002	 -5.032825E-001	  8.885986E-002	 -2.571639E-001	  1.722050E+002	 -5.986514E-001	  6.621172E-002	 -3.028013E-001
         9.3840	  1.666920E+002	  0.000000E+000	  3.500000E-001	  0.000000E+000	  1.666920E+002	 -5.097852E-001	  1.685566E-001	 -2.321746E-001	  1.685200E+002	 -4.647339E-001	  1.326672E-001	 -2.054885E-001	  1.709890E+002	 -5.032825E-001	  8.885986E-002	 -2.571639E-001	  1.722050E+002	 -5.986514E-001	  6.621172E-002	 -3.028013E-001
         9.5220	  1.666920E+002	  0.000000E+000	  3.500000E-001	  0.000000E+000	  1.666920E+002	 -5.097852E-001	  1.685566E-001	 -2.321746E-001	  1.685200E+002	 -4.647339E-001	  1.326672E-001	 -2.054885E-001	  1.709890E+002	 -5.032825E-001	  8.885986E-002	 -2.571639E-001	  1.722050E+002	 -5.986514E-001	  6.621172E-002	 -3.028013E-001
         9.6600	  1.666920E+002	  0.000000E+000	  3.500000E-001	  0.000000E+000	  1.666920E+002	 -5.097852E-001	  1.685566E-001	 -2.321746E-001	  1.685200E+002	 -4.647339E-001	  1.326672E-001	 -2.054885E-001	  1.709890E+002	 -5.032825E-001	  8.885986E-002	 -2.571639E-001	  1.722050E+002	 -5.986514E-001	  6.621172E-002	 -3.028013E-001
         9.7980	  1.666920E+002	  0.000000E+000	  3.500000E-001	  0.000000E+000	  1.666920E+002	 -5.097852E-001	  1.685566E-001	 -2.321746E-001	  1.685200E+002	 -4.647339E-001	  1.326672E-001	 -2.054885E-001	  1.709890E+002	 -5.032825E-001	  8.885986E-002	 -2.571639E-001	  1.722050E+002	 -5.986514E-001	  6.621172E-002	 -3.028013E-001
         9.9360	  1.666920E+002	  0.000000E+000	  3.500000E-001	  0.000000E+000	  1.666920E+002	 -5.097852E-001	  1.685566E-001	 -2.321746E-001	  1.685200E+002	 -4.647339E-001	  1.326672E-001	 -2.054885E-001	  1.709890E+002	 -5.032825E-001	  8.885986E-002	 -2.571639E-001	  1.722050E+002	 -5.986514E-001	  6.621172E-002	 -3.028013E-001
        10.0740	  1.666920E+002	  0.000000E+000	  3.500000E-001	  0.000000E+000	  1.666920E+002	 -5.097852E-001	  1.685566E-001	 -2.321746E-001	  1.685200E+002	 -4.647339E-001	  1.326672E-001	 -2.054885E-001	  1.709890E+002	 -5.032825E-001	  8.885986E-002	 -2.571639E-001	  1.722050E+002	 -5.986514E-001	  6.621172E-002	 -3.028013E-001
        10.2120	  1.666920E+002	  0.000000E+000	  3.500000E-001	  0.000000E+000	  1.666920E+002	 -5.097852E-001	  1.685566E-001	 -2.321746E-001	  1.685200E+002	 -4.647339E-001	  1.326672E-001	 -2.054885E-001	  1.709890E+002	 -5.032825E-001	  8.885986E-002	 -2.571639E-001	  1.722050E+002	 -5.986514E-001	  6.621172E-002	 -3.028013E-001
        10.3500	  1.666920E+002	  0.000000E+000	  3.500000E-001	  0.000000E+000	  1.666920E+002	 -5.097852E-001	  1.685566E-001	 -2.321746E-001	  1.685200E+002	 -4.647339E-001	  1.326672E-001	 -2.054885E-001	  1.709890E+002	 -5.032825E-001	  8.885986E-002	 -2.571639E-001	  1.722050E+002	 -5.986514E-001	  6.621172E-002	 -3.028013E-001
        10.4880	  1.666920E+002	  0.000000E+000	  3.500000E-001	  0.000000E+000	  1.666920E+002	 -5.097852E-001	  1.685566E-001	 -2.321746E-001	  1.685200E+002	 -4.647339E-001	  1.326672E-001	 -2.054885E-001	  1.709890E+002	 -5.032825E-001	  8.885986E-002	 -2.571639E-001	  1.722050E+002	 -5.986514E-001	  6.621172E-002	 -3.028013E-001
        10.6260	  1.666920E+002	  0.000000E+000	  3.500000E-001	  0.000000E+000	  1.666920E+002	 -5.097852E-001	  1.685566E-001	 -2.321746E-001	  1.685200E+002	 -4.647339E-001	  1.326672E-001	 -2.054885E-001	  1.709890E+002	 -5.032825E-001	  8.885986E-002	 -2.571639E-001	  1.722050E+002	 -5.986514E-001	  6.621172E-002	 -3.028013E-001
        10.7640	  1.666920E+002	  0.000000E+000	  3.500000E-001	  0.000000E+000	  1.666920E+002	 -5.097852E-001	  1.685566E-001	 -2.321746E-001	  1.685200E+002	 -4.647339E-001	  1.326672E-001	 -2.054885E-001	  1.709890E+002	 -5.032825E-001	  8.885986E-002	 -2.571639E-001	  1.722050E+002	 -5.986514E-001	  6.621172E-002	 -3.028013E-001
        10.9020	  1.666920E+002	  0.000000E+000	  3.500000E-001	  0.000000E+000	  1.666920E+002	 -5.097852E-001	  1.685566E-001	 -2.321746E-001	  1.685200E+002	 -4.647339E-001	  1.326672E-001	 -2.054885E-001	  1.709890E+002	 -5.032825E-001	  8.885986E-002	 -2.571639E-001	  1.722050E+002	 -5.986514E-001	  6.621172E-002	 -3.028013E-001
        11.0400	  1.666920E+002	  0.000000E+000	  3.500000E-001	  0.000000E+000	  1.666920E+002	 -5.097852E-001	  1.685566E-001	 -2.321746E-001	  1.685200E+002	 -4.647339E-001	  1.326672E-001	 -2.054885E-001	  1.709890E+002	 -5.032825E-001	  8.885986E-002	 -2.571639E-001	  1.722050E+002	 -5.986514E-001	  6.621172E-002	 -3.028013E-001
        11.1780	  1.666920E+002	  0.000000E+000	  3.500000E-001	  0.000000E+000	  1.666920E+002	 -5.097852E-001	  1.685566E-001	 -2.321746E-001	  1.685200E+002	 -4.647339E-001	  1.326672E-001	 -2.054885E-001	  1.709890E+002	 -5.032825E-001	  8.885986E-002	 -2.571639E-001	  1.722050E+002	 -5.986514E-001	  6.621172E-002	 -3.028013E-001
        11.3160	  1.666920E+002	  0.000000E+000	  3.500000E-001	  0.000000E+000	  1.666920E+002	 -5.097852E-001	  1.685566E-001	 -2.321746E-001	  1.685200E+002	 -4.647339E-001	  1.326672E-001	 -2.054885E-001	  1.709890E+002	 -5.032825E-001	  8.885986E-002	 -2.571639E-001	  1.722050E+002	 -5.986514E-001	  6.621172E-002	 -3.028013E-001
        11.4540	  1.666920E+002	  0.000000E+000	  3.500000E-001	  0.000000E+000	  1.666920E+002	 -5.097852E-001	  1.685566E-001	 -2.321746E-001	  1.685200E+002	 -4.647339E-001	  1.326672E-001	 -2.054885E-001	  1.709890E+002	 -5.032825E-001	  8.885986E-002	 -2.571639E-001	  1.722050E+002	 -5.986514E-001	  6.621172E-002	 -3.028013E-001
        11.5920	  1.666920E+002	  0.000000E+000	  3.500000E-001	  0.000000E+000	  1.666920E+002	 -5.097852E-001	  1.685566E-001	 -2.321746E-001	  1.685200E+002	 -4.647339E-001	  1.326672E-001	 -2.054885E-001	  1.709890E+002	 -5.032825E-001	  8.885986E-002	 -2.571639E-001	  1.722050E+002	 -5.986514E-001	  6.621172E-002	 -3.028013E-001
        11.7300	  1.666920E+002	  0.000000E+000	  3.500000E-001	  0.000000E+000	  1.666920E+002	 -5.097852E-001	  1.685566E-001	 -2.321746E-001	  1.685200E+002	 -4.647339E-001	  1.326672E-001	 -2.054885E-001	  1.709890E+002	 -5.032825E-001	  8.885986E-002	 -2.571639E-001	  1.722050E+002	 -5.986514E-001	  6.621172E-002	 -3.028013E-001
        11.8680	  1.666920E+002	  0.000000E+000	  3.500000E-001	  0.000000E+000	  1.666920E+002	 -5.097852E-001	  1.685566E-001	 -2.321746E-001	  1.685200E+002	 -4.647339E-001	  1.326672E-001	 -2.054885E-001	  1.709890E+002	 -5.032825E-001	  8.885986E-002	 -2.571639E-001	  1.722050E+002	 -5.986514E-001	  6.621172E-002	 -3.028013E-001