
Predictions were generated on 18-Jun-2018 at 09:50:49 using AeroDyn_Wrapper
 AeroDyn

Case 3: WndSpeed=0 m/s; ShearExp=0 ; RotSpeed=12.1 rpm; Pitch=0 deg; Yaw=20 deg; dT=1.38000E-03 s; Tmax=12.793 s

     Time           	B1N1Alpha 	B1N1Cl    	B1N1Cd    	B1N1Cm    	B1N2Alpha 	B1N2Cl    	B1N2Cd    	B1N2Cm    	B1N3Alpha 	B1N3Cl    	B1N3Cd    	B1N3Cm    	B1N4Alpha 	B1N4Cl    	B1N4Cd    	B1N4Cm    	B1N5Alpha 	B1N5Cl    	B1N5Cd    	B1N5Cm    
      (s)           	(deg)     	(-)       	(-)       	(-)       	(deg)     	(-)       	(-)       	(-)       	(deg)     	(-)       	(-)       	(-)       	(deg)     	(-)       	(-)       	(-)       	(deg)     	(-)       	(-)       	(-)       
         0.0000	  1.666920E+002	  0.000000E+000	  3.500000E-001	  0.000000E+000	  1.666920E+002	 -5.097852E-001	  1.685566E-001	 -2.321746E-001	  1.685200E+002	 -4.647339E-001	  1.326672E-001	 -2.054885E-001	  1.709890E+002	 -5.032825E-001	  8.885986E-002	 -2.571639E-001	  1.722050E+002	 -5.986514E-001	  6.621172E-002	 -3.028013E-001
         0.0014	  1.666920E+002	  0.000000E+000	  3.500000E-001	  0.000000E+000	  1.666920E+002	 -5.097852E-001	  1.685566E-001	  0.000000E+000	  1.685200E+002	 -4.647339E-001	  1.326672E-001	  0.000000E+000	  1.709890E+002	 -5.032825E-001	  8.885986E-002	  0.000000E+000	  1.722050E+002	 -5.986514E-001	  6.621172E-002	  0.000000E+000
         0.0028	  1.666920E+002	  0.000000E+000	  3.500000E-001	  0.000000E+000	  1.666920E+002	 -5.097852E-001	  1.685566E-001	 -2.321746E-001	  1.685200E+002	 -4.647339E-001	  1.326672E-001	 -2.054885E-001	  1.709890E+002	 -5.032825E-001	  8.885986E-002	 -2.571639E-001	  1.722050E+002	 -5.986514E-001	  6.621172E-002	 -3.028013E-001
         0.0041	  1.666920E+002	  0.000000E+000	  3.500000E-001	  0.000000E+000	  1.666920E+002	 -5.097852E-001	  1.685566E-001	 -2.321746E-001	  1.685200E+002	 -4.647339E-001	  1.326672E-001	 -2.054885E-001	  1.709890E+002	 -5.032825E-001	  8.885986E-002	 -2.571639E-001	  1.722050E+002	 -5.986514E-001	  6.621172E-002	 -3.028013E-001
         0.0055	  1.666920E+002	  0.000000E+000	  3.500000E-001	  0.000000E+000	  1.666920E+002	 -5.097852E-001	  1.685566E-001	 -2.321746E-001	  1.685200E+002	 -4.647339E-001	  1.326672E-001	 -2.054885E-001	  1.709890E+002	 -5.032825E-001	  8.885986E-002	 -2.571639E-001	  1.722050E+002	 -5.986514E-001	  6.621172E-002	 -3.028013E-001
         0.0069	  1.666920E+002	  0.000000E+000	  3.500000E-001	  0.000000E+000	  1.666920E+002	 -5.097852E-001	  1.685566E-001	 -2.321746E-001	  1.685200E+002	 -4.647339E-001	  1.326672E-001	 -2.054885E-001	  1.709890E+002	 -5.032825E-001	  8.885986E-002	 -2.571639E-001	  1.722050E+002	 -5.986514E-001	  6.621172E-002	 -3.028013E-001
         0.0083	  1.666920E+002	  0.000000E+000	  3.500000E-001	  0.000000E+000	  1.666920E+002	 -5.097852E-001	  1.685566E-001	 -2.321746E-001	  1.685200E+002	 -4.647339E-001	  1.326672E-001	 -2.054885E-001	  1.709890E+002	 -5.032825E-001	  8.885986E-002	 -2.571639E-001	  1.722050E+002	 -5.986514E-001	  6.621172E-002	 -3.028013E-001
         0.0097	  1.666920E+002	  0.000000E+000	  3.500000E-001	  0.000000E+000	  1.666920E+002	 -5.097852E-001	  1.685566E-001	 -2.321746E-001	  1.685200E+002	 -4.647339E-001	  1.326672E-001	 -2.054885E-001	  1.709890E+002	 -5.032825E-001	  8.885986E-002	 -2.571639E-001	  1.722050E+002	 -5.986514E-001	  6.621172E-002	 -3.028013E-001
         0.0110	  1.666920E+002	  0.000000E+000	  3.500000E-001	  0.000000E+000	  1.666920E+002	 -5.097852E-001	  1.685566E-001	 -2.321746E-001	  1.685200E+002	 -4.647339E-001	  1.326672E-001	 -2.054885E-001	  1.709890E+002	 -5.032825E-001	  8.885986E-002	 -2.571639E-001	  1.722050E+002	 -5.986514E-001	  6.621172E-002	 -3.028013E-001
         0.0124	  1.666920E+002	  0.000000E+000	  3.500000E-001	  0.000000E+000	  1.666920E+002	 -5.097852E-001	  1.685566E-001	 -2.321746E-001	  1.685200E+002	 -4.647339E-001	  1.326672E-001	 -2.054885E-001	  1.709890E+002	 -5.032825E-001	  8.885986E-002	 -2.571639E-001	  1.722050E+002	 -5.986514E-001	  6.621172E-002	 -3.028013E-001
         0.0138	  1.666920E+002	  0.000000E+000	  3.500000E-001	  0.000000E+000	  1.666920E+002	 -5.097852E-001	  1.685566E-001	 -2.321746E-001	  1.685200E+002	 -4.647339E-001	  1.326672E-001	 -2.054885E-001	  1.709890E+002	 -5.032825E-001	  8.885986E-002	 -2.571639E-001	  1.722050E+002	 -5.986514E-001	  6.621172E-002	 -3.028013E-001
         0.0152	  1.666920E+002	  0.000000E+000	  3.500000E-001	  0.000000E+000	  1.666920E+002	 -5.097852E-001	  1.685566E-001	 -2.321746E-001	  1.685200E+002	 -4.647339E-001	  1.326672E-001	 -2.054885E-001	  1.709890E+002	 -5.032825E-001	  8.885986E-002	 -2.571639E-001	  1.722050E+002	 -5.986514E-001	  6.621172E-002	 -3.028013E-001
         0.0166	  1.666920E+002	  0.000000E+000	  3.500000E-001	  0.000000E+000	  1.666920E+002	 -5.097852E-001	  1.685566E-001	 -2.321746E-001	  1.685200E+002	 -4.647339E-001	  1.326672E-001	 -2.054885E-001	  1.709890E+002	 -5.032825E-001	  8.885986E-002	 -2.571639E-001	  1.722050E+002	 -5.986514E-001	  6.621172E-002	 -3.028013E-001
         0.0179	  1.666920E+002	  0.000000E+000	  3.500000E-001	  0.000000E+000	  1.666920E+002	 -5.097852E-001	  1.685566E-001	 -2.321746E-001	  1.685200E+002	 -4.647339E-001	  1.326672E-001	 -2.054885E-001	  1.709890E+002	 -5.032825E-001	  8.885986E-002	 -2.571639E-001	  1.722050E+002	 -5.986514E-001	  6.621172E-002	 -3.028013E-001
         0.0193	  1.666920E+002	  0.000000E+000	  3.500000E-001	  0.000000E+000	  1.666920E+002	 -5.097852E-001	  1.685566E-001	 -2.321746E-001	  1.685200E+002	 -4.647339E-001	  1.326672E-001	 -2.054885E-001	  1.709890E+002	 -5.032825E-001	  8.885986E-002	 -2.571639E-001	  1.722050E+002	 -5.986514E-001	  6.621172E-002	 -3.028013E-001
         0.0207	  1.666920E+002	  0.000000E+000	  3.500000E-001	  0.000000E+000	  1.666920E+002	 -5.097852E-001	  1.685566E-001	 -2.321746E-001	  1.685200E+002	 -4.647339E-001	  1.326672E-001	 -2.054885E-001	  1.709890E+002	 -5.032825E-001	  8.885986E-002	 -2.571639E-001	  1.722050E+002	 -5.986514E-001	  6.621172E-002	 -3.028013E-001
         0.0221	  1.666920E+002	  0.000000E+000	  3.500000E-001	  0.000000E+000	  1.666920E+002	 -5.097852E-001	  1.685566E-001	 -2.321746E-001	  1.685200E+002	 -4.647339E-001	  1.326672E-001	 -2.054885E-001	  1.709890E+002	 -5.032825E-001	  8.885986E-002	 -2.571639E-001	  1.722050E+002	 -5.986514E-001	  6.621172E-002	 -3.028013E-001
         0.0235	  1.666920E+002	  0.000000E+000	  3.500000E-001	  0.000000E+000	  1.666920E+002	 -5.097852E-001	  1.685566E-001	 -2.321746E-001	  1.685200E+002	 -4.647339E-001	  1.326672E-001	 -2.054885E-001	  1.709890E+002	 -5.032825E-001	  8.885986E-002	 -2.571639E-001	  1.722050E+002	 -5.986514E-001	  6.621172E-002	 -3.028013E-001
         0.0248	  1.666920E+002	  0.000000E+000	  3.500000E-001	  0.000000E+000	  1.666920E+002	 -5.097852E-001	  1.685566E-001	 -2.321746E-001	  1.685200E+002	 -4.647339E-001	  1.326672E-001	 -2.054885E-001	  1.709890E+002	 -5.032825E-001	  8.885986E-002	 -2.571639E-001	  1.722050E+002	 -5.986514E-001	  6.621172E-002	 -3.028013E-001
         0.0262	  1.666920E+002	  0.000000E+000	  3.500000E-001	  0.000000E+000	  1.666920E+002	 -5.097852E-001	  1.685566E-001	 -2.321746E-001	  1.685200E+002	 -4.647339E-001	  1.326672E-001	 -2.054885E-001	  1.709890E+002	 -5.032825E-001	  8.885986E-002	 -2.571639E-001	  1.722050E+002	 -5.986514E-001	  6.621172E-002	 -3.028013E-001
         0.0276	  1.666920E+002	  0.000000E+000	  3.500000E-001	  0.000000E+000	  1.666920E+002	 -5.097852E-001	  1.685566E-001	 -2.321746E-001	  1.685200E+002	 -4.647339E-001	  1.326672E-001	 -2.054885E-001	  1.709890E+002	 -5.032825E-001	  8.885986E-002	 -2.571639E-001	  1.722050E+002	 -5.986514E-001	  6.621172E-002	 -3.028013E-001
         0.0290	  1.666920E+002	  0.000000E+000	  3.500000E-001	  0.000000E+000	  1.666920E+002	 -5.097852E-001	  1.685566E-001	 -2.321746E-001	  1.685200E+002	 -4.647339E-001	  1.326672E-001	 -2.054885E-001	  1.709890E+002	 -5.032825E-001	  8.885986E-002	 -2.571639E-001	  1.722050E+002	 -5.986514E-001	  6.621172E-002	 -3.028013E-001
         0.0304	  1.666920E+002	  0.000000E+000	  3.500000E-001	  0.000000E+000	  1.666920E+002	 -5.097852E-001	  1.685566E-001	 -2.321746E-001	  1.685200E+002	 -4.647339E-001	  1.326672E-001	 -2.054885E-001	  1.709890E+002	 -5.032825E-001	  8.885986E-002	 -2.571639E-001	  1.722050E+002	 -5.986514E-001	  6.621172E-002	 -3.028013E-001
         0.0317	  1.666920E+002	  0.000000E+000	  3.500000E-001	  0.000000E+000	  1.666920E+002	 -5.097852E-001	  1.685566E-001	 -2.321746E-001	  1.685200E+002	 -4.647339E-001	  1.326672E-001	 -2.054885E-001	  1.709890E+002	 -5.032825E-001	  8.885986E-002	 -2.571639E-001	  1.722050E+002	 -5.986514E-001	  6.621172E-002	 -3.028013E-001
         0.0331	  1.666920E+002	  0.000000E+000	  3.500000E-001	  0.000000E+000	  1.666920E+002	 -5.097852E-001	  1.685566E-001	 -2.321746E-001	  1.685200E+002	 -4.647339E-001	  1.326672E-001	 -2.054885E-001	  1.709890E+002	 -5.032825E-001	  8.885986E-002	 -2.571639E-001	  1.722050E+002	 -5.986514E-001	  6.621172E-002	 -3.028013E-001
         0.0345	  1.666920E+002	  0.000000E+000	  3.500000E-001	  0.000000E+000	  1.666920E+002	 -5.097852E-001	  1.685566E-001	 -2.321746E-001	  1.685200E+002	 -4.647339E-001	  1.326672E-001	 -2.054885E-001	  1.709890E+002	 -5.032825E-001	  8.885986E-002	 -2.571639E-001	  1.722050E+002	 -5.986514E-001	  6.621172E-002	 -3.028013E-001
         0.0359	  1.666920E+002	  0.000000E+000	  3.500000E-001	  0.000000E+000	  1.666920E+002	 -5.097852E-001	  1.685566E-001	 -2.321746E-001	  1.685200E+002	 -4.647339E-001	  1.326672E-001	 -2.054885E-001	  1.709890E+002	 -5.032825E-001	  8.885986E-002	 -2.571639E-001	  1.722050E+002	 -5.986514E-001	  6.621172E-002	 -3.028013E-001
         0.0373	  1.666920E+002	  0.000000E+000	  3.500000E-001	  0.000000E+000	  1.666920E+002	 -5.097852E-001	  1.685566E-001	 -2.321746E-001	  1.685200E+002	 -4.647339E-001	  1.326672E-001	 -2.054885E-001	  1.709890E+002	 -5.032825E-001	  8.885986E-002	 -2.571639E-001	  1.722050E+002	 -5.986514E-001	  6.621172E-002	 -3.028013E-001
         0.0386	  1.666920E+002	  0.000000E+000	  3.500000E-001	  0.000000E+000	  1.666920E+002	 -5.097852E-001	  1.685566E-001	 -2.321746E-001	  1.685200E+002	 -4.647339E-001	  1.326672E-001	 -2.054885E-001	  1.709890E+002	 -5.032825E-001	  8.885986E-002	 -2.571639E-001	  1.722050E+002	 -5.986514E-001	  6.621172E-002	 -3.028013E-001
         0.0400	  1.666920E+002	  0.000000E+000	  3.500000E-001	  0.000000E+000	  1.666920E+002	 -5.097852E-001	  1.685566E-001	 -2.321746E-001	  1.685200E+002	 -4.647339E-001	  1.326672E-001	 -2.054885E-001	  1.709890E+002	 -5.032825E-001	  8.885986E-002	 -2.571639E-001	  1.722050E+002	 -5.986514E-001	  6.621172E-002	 -3.028013E-001
         0.0414	  1.666920E+002	  0.000000E+000	  3.500000E-001	  0.000000E+000	  1.666920E+002	 -5.097852E-001	  1.685566E-001	 -2.321746E-001	  1.685200E+002	 -4.647339E-001	  1.326672E-001	 -2.054885E-001	  1.709890E+002	 -5.032825E-001	  8.885986E-002	 -2.571639E-001	  1.722050E+002	 -5.986514E-001	  6.621172E-002	 -3.028013E-001
         0.0428	  1.666920E+002	  0.000000E+000	  3.500000E-001	  0.000000E+000	  1.666920E+002	 -5.097852E-001	  1.685566E-001	 -2.321746E-001	  1.685200E+002	 -4.647339E-001	  1.326672E-001	 -2.054885E-001	  1.709890E+002	 -5.032825E-001	  8.885986E-002	 -2.571639E-001	  1.722050E+002	 -5.986514E-001	  6.621172E-002	 -3.028013E-001
         0.0442	  1.666920E+002	  0.000000E+000	  3.500000E-001	  0.000000E+000	  1.666920E+002	 -5.097852E-001	  1.685566E-001	 -2.321746E-001	  1.685200E+002	 -4.647339E-001	  1.326672E-001	 -2.054885E-001	  1.709890E+002	 -5.032825E-001	  8.885986E-002	 -2.571639E-001	  1.722050E+002	 -5.986514E-001	  6.621172E-002	 -3.028013E-001
         0.0455	  1.666920E+002	  0.000000E+000	  3.500000E-001	  0.000000E+000	  1.666920E+002	 -5.097852E-001	  1.685566E-001	 -2.321746E-001	  1.685200E+002	 -4.647339E-001	  1.326672E-001	 -2.054885E-001	  1.709890E+002	 -5.032825E-001	  8.885986E-002	 -2.571639E-001	  1.722050E+002	 -5.986514E-001	  6.621172E-002	 -3.028013E-001
         0.0469	  1.666920E+002	  0.000000E+000	  3.500000E-001	  0.000000E+000	  1.666920E+002	 -5.097852E-001	  1.685566E-001	 -2.321746E-001	  1.685200E+002	 -4.647339E-001	  1.326672E-001	 -2.054885E-001	  1.709890E+002	 -5.032825E-001	  8.885986E-002	 -2.571639E-001	  1.722050E+002	 -5.986514E-001	  6.621172E-002	 -3.028013E-001
         0.0483	  1.666920E+002	  0.000000E+000	  3.500000E-001	  0.000000E+000	  1.666920E+002	 -5.097852E-001	  1.685566E-001	 -2.321746E-001	  1.685200E+002	 -4.647339E-001	  1.326672E-001	 -2.054885E-001	  1.709890E+002	 -5.032825E-001	  8.885986E-002	 -2.571639E-001	  1.722050E+002	 -5.986514E-001	  6.621172E-002	 -3.028013E-001
         0.0497	  1.666920E+002	  0.000000E+000	  3.500000E-001	  0.000000E+000	  1.666920E+002	 -5.097852E-001	  1.685566E-001	 -2.321746E-001	  1.685200E+002	 -4.647339E-001	  1.326672E-001	 -2.054885E-001	  1.709890E+002	 -5.032825E-001	  8.885986E-002	 -2.571639E-001	  1.722050E+002	 -5.986514E-001	  6.621172E-002	 -3.028013E-001
         0.0511	  1.666920E+002	  0.000000E+000	  3.500000E-001	  0.000000E+000	  1.666920E+002	 -5.097852E-001	  1.685566E-001	 -2.321746E-001	  1.685200E+002	 -4.647339E-001	  1.326672E-001	 -2.054885E-001	  1.709890E+002	 -5.032825E-001	  8.885986E-002	 -2.571639E-001	  1.722050E+002	 -5.986514E-001	  6.621172E-002	 -3.028013E-001
         0.0524	  1.666920E+002	  0.000000E+000	  3.500000E-001	  0.000000E+000	  1.666920E+002	 -5.097852E-001	  1.685566E-001	 -2.321746E-001	  1.685200E+002	 -4.647339E-001	  1.326672E-001	 -2.054885E-001	  1.709890E+002	 -5.032825E-001	  8.885986E-002	 -2.571639E-001	  1.722050E+002	 -5.986514E-001	  6.621172E-002	 -3.028013E-001
         0.0538	  1.666920E+002	  0.000000E+000	  3.500000E-001	  0.000000E+000	  1.666920E+002	 -5.097852E-001	  1.685566E-001	 -2.321746E-001	  1.685200E+002	 -4.647339E-001	  1.326672E-001	 -2.054885E-001	  1.709890E+002	 -5.032825E-001	  8.885986E-002	 -2.571639E-001	  1.722050E+002	 -5.986514E-001	  6.621172E-002	 -3.028013E-001
         0.0552	  1.666920E+002	  0.000000E+000	  3.500000E-001	  0.000000E+000	  1.666920E+002	 -5.097852E-001	  1.685566E-001	 -2.321746E-001	  1.685200E+002	 -4.647339E-001	  1.326672E-001	 -2.054885E-001	  1.709890E+002	 -5.032825E-001	  8.885986E-002	 -2.571639E-001	  1.722050E+002	 -5.986514E-001	  6.621172E-002	 -3.028013E-001
         0.0566	  1.666920E+002	  0.000000E+000	  3.500000E-001	  0.000000E+000	  1.666920E+002	 -5.097852E-001	  1.685566E-001	 -2.321746E-001	  1.685200E+002	 -4.647339E-001	  1.326672E-001	 -2.054885E-001	  1.709890E+002	 -5.032825E-001	  8.885986E-002	 -2.571639E-001	  1.722050E+002	 -5.986514E-001	  6.621172E-002	 -3.028013E-001
         0.0580	  1.666920E+002	  0.000000E+000	  3.500000E-001	  0.000000E+000	  1.666920E+002	 -5.097852E-001	  1.685566E-001	 -2.321746E-001	  1.685200E+002	 -4.647339E-001	  1.326672E-001	 -2.054885E-001	  1.709890E+002	 -5.032825E-001	  8.885986E-002	 -2.571639E-001	  1.722050E+002	 -5.986514E-001	  6.621172E-002	 -3.028013E-001
         0.0593	  1.666920E+002	  0.000000E+000	  3.500000E-001	  0.000000E+000	  1.666920E+002	 -5.097852E-001	  1.685566E-001	 -2.321746E-001	  1.685200E+002	 -4.647339E-001	  1.326672E-001	 -2.054885E-001	  1.709890E+002	 -5.032825E-001	  8.885986E-002	 -2.571639E-001	  1.722050E+002	 -5.986514E-001	  6.621172E-002	 -3.028013E-001
         0.0607	  1.666920E+002	  0.000000E+000	  3.500000E-001	  0.000000E+000	  1.666920E+002	 -5.097852E-001	  1.685566E-001	 -2.321746E-001	  1.685200E+002	 -4.647339E-001	  1.326672E-001	 -2.054885E-001	  1.709890E+002	 -5.032825E-001	  8.885986E-002	 -2.571639E-001	  1.722050E+002	 -5.986514E-001	  6.621172E-002	 -3.028013E-001
         0.0621	  1.666920E+002	  0.000000E+000	  3.500000E-001	  0.000000E+000	  1.666920E+002	 -5.097852E-001	  1.685566E-001	 -2.321746E-001	  1.685200E+002	 -4.647339E-001	  1.326672E-001	 -2.054885E-001	  1.709890E+002	 -5.032825E-001	  8.885986E-002	 -2.571639E-001	  1.722050E+002	 -5.986514E-001	  6.621172E-002	 -3.028013E-001
         0.0635	  1.666920E+002	  0.000000E+000	  3.500000E-001	  0.000000E+000	  1.666920E+002	 -5.097852E-001	  1.685566E-001	 -2.321746E-001	  1.685200E+002	 -4.647339E-001	  1.326672E-001	 -2.054885E-001	  1.709890E+002	 -5.032825E-001	  8.885986E-002	 -2.571639E-001	  1.722050E+002	 -5.986514E-001	  6.621172E-002	 -3.028013E-001
         0.0649	  1.666920E+002	  0.000000E+000	  3.500000E-001	  0.000000E+000	  1.666920E+002	 -5.097852E-001	  1.685566E-001	 -2.321746E-001	  1.685200E+002	 -4.647339E-001	  1.326672E-001	 -2.054885E-001	  1.709890E+002	 -5.032825E-001	  8.885986E-002	 -2.571639E-001	  1.722050E+002	 -5.986514E-001	  6.621172E-002	 -3.028013E-001
         0.0662	  1.666920E+002	  0.000000E+000	  3.500000E-001	  0.000000E+000	  1.666920E+002	 -5.097852E-001	  1.685566E-001	 -2.321746E-001	  1.685200E+002	 -4.647339E-001	  1.326672E-001	 -2.054885E-001	  1.709890E+002	 -5.032825E-001	  8.885986E-002	 -2.571639E-001	  1.722050E+002	 -5.986514E-001	  6.621172E-002	 -3.028013E-001
         0.0676	  1.666920E+002	  0.000000E+000	  3.500000E-001	  0.000000E+000	  1.666920E+002	 -5.097852E-001	  1.685566E-001	 -2.321746E-001	  1.685200E+002	 -4.647339E-001	  1.326672E-001	 -2.054885E-001	  1.709890E+002	 -5.032825E-001	  8.885986E-002	 -2.571639E-001	  1.722050E+002	 -5.986514E-001	  6.621172E-002	 -3.028013E-001
         0.0690	  1.666920E+002	  0.000000E+000	  3.500000E-001	  0.000000E+000	  1.666920E+002	 -5.097852E-001	  1.685566E-001	 -2.321746E-001	  1.685200E+002	 -4.647339E-001	  1.326672E-001	 -2.054885E-001	  1.709890E+002	 -5.032825E-001	  8.885986E-002	 -2.571639E-001	  1.722050E+002	 -5.986514E-001	  6.621172E-002	 -3.028013E-001
         0.0704	  1.666920E+002	  0.000000E+000	  3.500000E-001	  0.000000E+000	  1.666920E+002	 -5.097852E-001	  1.685566E-001	 -2.321746E-001	  1.685200E+002	 -4.647339E-001	  1.326672E-001	 -2.054885E-001	  1.709890E+002	 -5.032825E-001	  8.885986E-002	 -2.571639E-001	  1.722050E+002	 -5.986514E-001	  6.621172E-002	 -3.028013E-001
         0.0718	  1.666920E+002	  0.000000E+000	  3.500000E-001	  0.000000E+000	  1.666920E+002	 -5.097852E-001	  1.685566E-001	 -2.321746E-001	  1.685200E+002	 -4.647339E-001	  1.326672E-001	 -2.054885E-001	  1.709890E+002	 -5.032825E-001	  8.885986E-002	 -2.571639E-001	  1.722050E+002	 -5.986514E-001	  6.621172E-002	 -3.028013E-001
         0.0731	  1.666920E+002	  0.000000E+000	  3.500000E-001	  0.000000E+000	  1.666920E+002	 -5.097852E-001	  1.685566E-001	 -2.321746E-001	  1.685200E+002	 -4.647339E-001	  1.326672E-001	 -2.054885E-001	  1.709890E+002	 -5.032825E-001	  8.885986E-002	 -2.571639E-001	  1.722050E+002	 -5.986514E-001	  6.621172E-002	 -3.028013E-001
         0.0745	  1.666920E+002	  0.000000E+000	  3.500000E-001	  0.000000E+000	  1.666920E+002	 -5.097852E-001	  1.685566E-001	 -2.321746E-001	  1.685200E+002	 -4.647339E-001	  1.326672E-001	 -2.054885E-001	  1.709890E+002	 -5.032825E-001	  8.885986E-002	 -2.571639E-001	  1.722050E+002	 -5.986514E-001	  6.621172E-002	 -3.028013E-001
         0.0759	  1.666920E+002	  0.000000E+000	  3.500000E-001	  0.000000E+000	  1.666920E+002	 -5.097852E-001	  1.685566E-001	 -2.321746E-001	  1.685200E+002	 -4.647339E-001	  1.326672E-001	 -2.054885E-001	  1.709890E+002	 -5.032825E-001	  8.885986E-002	 -2.571639E-001	  1.722050E+002	 -5.986514E-001	  6.621172E-002	 -3.028013E-001
         0.0773	  1.666920E+002	  0.000000E+000	  3.500000E-001	  0.000000E+000	  1.666920E+002	 -5.097852E-001	  1.685566E-001	 -2.321746E-001	  1.685200E+002	 -4.647339E-001	  1.326672E-001	 -2.054885E-001	  1.709890E+002	 -5.032825E-001	  8.885986E-002	 -2.571639E-001	  1.722050E+002	 -5.986514E-001	  6.621172E-002	 -3.028013E-001
         0.0787	  1.666920E+002	  0.000000E+000	  3.500000E-001	  0.000000E+000	  1.666920E+002	 -5.097852E-001	  1.685566E-001	 -2.321746E-001	  1.685200E+002	 -4.647339E-001	  1.326672E-001	 -2.054885E-001	  1.709890E+002	 -5.032825E-001	  8.885986E-002	 -2.571639E-001	  1.722050E+002	 -5.986514E-001	  6.621172E-002	 -3.028013E-001
         0.0800	  1.666920E+002	  0.000000E+000	  3.500000E-001	  0.000000E+000	  1.666920E+002	 -5.097852E-001	  1.685566E-001	 -2.321746E-001	  1.685200E+002	 -4.647339E-001	  1.326672E-001	 -2.054885E-001	  1.709890E+002	 -5.032825E-001	  8.885986E-002	 -2.571639E-001	  1.722050E+002	 -5.986514E-001	  6.621172E-002	 -3.028013E-001
         0.0814	  1.666920E+002	  0.000000E+000	  3.500000E-001	  0.000000E+000	  1.666920E+002	 -5.097852E-001	  1.685566E-001	 -2.321746E-001	  1.685200E+002	 -4.647339E-001	  1.326672E-001	 -2.054885E-001	  1.709890E+002	 -5.032825E-001	  8.885986E-002	 -2.571639E-001	  1.722050E+002	 -5.986514E-001	  6.621172E-002	 -3.028013E-001
         0.0828	  1.666920E+002	  0.000000E+000	  3.500000E-001	  0.000000E+000	  1.666920E+002	 -5.097852E-001	  1.685566E-001	 -2.321746E-001	  1.685200E+002	 -4.647339E-001	  1.326672E-001	 -2.054885E-001	  1.709890E+002	 -5.032825E-001	  8.885986E-002	 -2.571639E-001	  1.722050E+002	 -5.986514E-001	  6.621172E-002	 -3.028013E-001
         0.0842	  1.666920E+002	  0.000000E+000	  3.500000E-001	  0.000000E+000	  1.666920E+002	 -5.097852E-001	  1.685566E-001	 -2.321746E-001	  1.685200E+002	 -4.647339E-001	  1.326672E-001	 -2.054885E-001	  1.709890E+002	 -5.032825E-001	  8.885986E-002	 -2.571639E-001	  1.722050E+002	 -5.986514E-001	  6.621172E-002	 -3.028013E-001
         0.0856	  1.666920E+002	  0.000000E+000	  3.500000E-001	  0.000000E+000	  1.666920E+002	 -5.097852E-001	  1.685566E-001	 -2.321746E-001	  1.685200E+002	 -4.647339E-001	  1.326672E-001	 -2.054885E-001	  1.709890E+002	 -5.032825E-001	  8.885986E-002	 -2.571639E-001	  1.722050E+002	 -5.986514E-001	  6.621172E-002	 -3.028013E-001
         0.0869	  1.666920E+002	  0.000000E+000	  3.500000E-001	  0.000000E+000	  1.666920E+002	 -5.097852E-001	  1.685566E-001	 -2.321746E-001	  1.685200E+002	 -4.647339E-001	  1.326672E-001	 -2.054885E-001	  1.709890E+002	 -5.032825E-001	  8.885986E-002	 -2.571639E-001	  1.722050E+002	 -5.986514E-001	  6.621172E-002	 -3.028013E-001
         0.0883	  1.666920E+002	  0.000000E+000	  3.500000E-001	  0.000000E+000	  1.666920E+002	 -5.097852E-001	  1.685566E-001	 -2.321746E-001	  1.685200E+002	 -4.647339E-001	  1.326672E-001	 -2.054885E-001	  1.709890E+002	 -5.032825E-001	  8.885986E-002	 -2.571639E-001	  1.722050E+002	 -5.986514E-001	  6.621172E-002	 -3.028013E-001
         0.0897	  1.666920E+002	  0.000000E+000	  3.500000E-001	  0.000000E+000	  1.666920E+002	 -5.097852E-001	  1.685566E-001	 -2.321746E-001	  1.685200E+002	 -4.647339E-001	  1.326672E-001	 -2.054885E-001	  1.709890E+002	 -5.032825E-001	  8.885986E-002	 -2.571639E-001	  1.722050E+002	 -5.986514E-001	  6.621172E-002	 -3.028013E-001
         0.0911	  1.666920E+002	  0.000000E+000	  3.500000E-001	  0.000000E+000	  1.666920E+002	 -5.097852E-001	  1.685566E-001	 -2.321746E-001	  1.685200E+002	 -4.647339E-001	  1.326672E-001	 -2.054885E-001	  1.709890E+002	 -5.032825E-001	  8.885986E-002	 -2.571639E-001	  1.722050E+002	 -5.986514E-001	  6.621172E-002	 -3.028013E-001
         0.0925	  1.666920E+002	  0.000000E+000	  3.500000E-001	  0.000000E+000	  1.666920E+002	 -5.097852E-001	  1.685566E-001	 -2.321746E-001	  1.685200E+002	 -4.647339E-001	  1.326672E-001	 -2.054885E-001	  1.709890E+002	 -5.032825E-001	  8.885986E-002	 -2.571639E-001	  1.722050E+002	 -5.986514E-001	  6.621172E-002	 -3.028013E-001
         0.0938	  1.666920E+002	  0.000000E+000	  3.500000E-001	  0.000000E+000	  1.666920E+002	 -5.097852E-001	  1.685566E-001	 -2.321746E-001	  1.685200E+002	 -4.647339E-001	  1.326672E-001	 -2.054885E-001	  1.709890E+002	 -5.032825E-001	  8.885986E-002	 -2.571639E-001	  1.722050E+002	 -5.986514E-001	  6.621172E-002	 -3.028013E-001
         0.0952	  1.666920E+002	  0.000000E+000	  3.500000E-001	  0.000000E+000	  1.666920E+002	 -5.097852E-001	  1.685566E-001	 -2.321746E-001	  1.685200E+002	 -4.647339E-001	  1.326672E-001	 -2.054885E-001	  1.709890E+002	 -5.032825E-001	  8.885986E-002	 -2.571639E-001	  1.722050E+002	 -5.986514E-001	  6.621172E-002	 -3.028013E-001
         0.0966	  1.666920E+002	  0.000000E+000	  3.500000E-001	  0.000000E+000	  1.666920E+002	 -5.097852E-001	  1.685566E-001	 -2.321746E-001	  1.685200E+002	 -4.647339E-001	  1.326672E-001	 -2.054885E-001	  1.709890E+002	 -5.032825E-001	  8.885986E-002	 -2.571639E-001	  1.722050E+002	 -5.986514E-001	  6.621172E-002	 -3.028013E-001
         0.0980	  1.666920E+002	  0.000000E+000	  3.500000E-001	  0.000000E+000	  1.666920E+002	 -5.097852E-001	  1.685566E-001	 -2.321746E-001	  1.685200E+002	 -4.647339E-001	  1.326672E-001	 -2.054885E-001	  1.709890E+002	 -5.032825E-001	  8.885986E-002	 -2.571639E-001	  1.722050E+002	 -5.986514E-001	  6.621172E-002	 -3.028013E-001
         0.0994	  1.666920E+002	  0.000000E+000	  3.500000E-001	  0.000000E+000	  1.666920E+002	 -5.097852E-001	  1.685566E-001	 -2.321746E-001	  1.685200E+002	 -4.647339E-001	  1.326672E-001	 -2.054885E-001	  1.709890E+002	 -5.032825E-001	  8.885986E-002	 -2.571639E-001	  1.722050E+002	 -5.986514E-001	  6.621172E-002	 -3.028013E-001
         0.1007	  1.666920E+002	  0.000000E+000	  3.500000E-001	  0.000000E+000	  1.666920E+002	 -5.097852E-001	  1.685566E-001	 -2.321746E-001	  1.685200E+002	 -4.647339E-001	  1.326672E-001	 -2.054885E-001	  1.709890E+002	 -5.032825E-001	  8.885986E-002	 -2.571639E-001	  1.722050E+002	 -5.986514E-001	  6.621172E-002	 -3.028013E-001
         0.1021	  1.666920E+002	  0.000000E+000	  3.500000E-001	  0.000000E+000	  1.666920E+002	 -5.097852E-001	  1.685566E-001	 -2.321746E-001	  1.685200E+002	 -4.647339E-001	  1.326672E-001	 -2.054885E-001	  1.709890E+002	 -5.032825E-001	  8.885986E-002	 -2.571639E-001	  1.722050E+002	 -5.986514E-001	  6.621172E-002	 -3.028013E-001
         0.1035	  1.666920E+002	  0.000000E+000	  3.500000E-001	  0.000000E+000	  1.666920E+002	 -5.097852E-001	  1.685566E-001	 -2.321746E-001	  1.685200E+002	 -4.647339E-001	  1.326672E-001	 -2.054885E-001	  1.709890E+002	 -5.032825E-001	  8.885986E-002	 -2.571639E-001	  1.722050E+002	 -5.986514E-001	  6.621172E-002	 -3.028013E-001
         0.1049	  1.666920E+002	  0.000000E+000	  3.500000E-001	  0.000000E+000	  1.666920E+002	 -5.097852E-001	  1.685566E-001	 -2.321746E-001	  1.685200E+002	 -4.647339E-001	  1.326672E-001	 -2.054885E-001	  1.709890E+002	 -5.032825E-001	  8.885986E-002	 -2.571639E-001	  1.722050E+002	 -5.986514E-001	  6.621172E-002	 -3.028013E-001
         0.1063	  1.666920E+002	  0.000000E+000	  3.500000E-001	  0.000000E+000	  1.666920E+002	 -5.097852E-001	  1.685566E-001	 -2.321746E-001	  1.685200E+002	 -4.647339E-001	  1.326672E-001	 -2.054885E-001	  1.709890E+002	 -5.032825E-001	  8.885986E-002	 -2.571639E-001	  1.722050E+002	 -5.986514E-001	  6.621172E-002	 -3.028013E-001
         0.1076	  1.666920E+002	  0.000000E+000	  3.500000E-001	  0.000000E+000	  1.666920E+002	 -5.097852E-001	  1.685566E-001	 -2.321746E-001	  1.685200E+002	 -4.647339E-001	  1.326672E-001	 -2.054885E-001	  1.709890E+002	 -5.032825E-001	  8.885986E-002	 -2.571639E-001	  1.722050E+002	 -5.986514E-001	  6.621172E-002	 -3.028013E-001
         0.1090	  1.666920E+002	  0.000000E+000	  3.500000E-001	  0.000000E+000	  1.666920E+002	 -5.097852E-001	  1.685566E-001	 -2.321746E-001	  1.685200E+002	 -4.647339E-001	  1.326672E-001	 -2.054885E-001	  1.709890E+002	 -5.032825E-001	  8.885986E-002	 -2.571639E-001	  1.722050E+002	 -5.986514E-001	  6.621172E-002	 -3.028013E-001
         0.1104	  1.666920E+002	  0.000000E+000	  3.500000E-001	  0.000000E+000	  1.666920E+002	 -5.097852E-001	  1.685566E-001	 -2.321746E-001	  1.685200E+002	 -4.647339E-001	  1.326672E-001	 -2.054885E-001	  1.709890E+002	 -5.032825E-001	  8.885986E-002	 -2.571639E-001	  1.722050E+002	 -5.986514E-001	  6.621172E-002	 -3.028013E-001
         0.1118	  1.666920E+002	  0.000000E+000	  3.500000E-001	  0.000000E+000	  1.666920E+002	 -5.097852E-001	  1.685566E-001	 -2.321746E-001	  1.685200E+002	 -4.647339E-001	  1.326672E-001	 -2.054885E-001	  1.709890E+002	 -5.032825E-001	  8.885986E-002	 -2.571639E-001	  1.722050E+002	 -5.986514E-001	  6.621172E-002	 -3.028013E-001
         0.1132	  1.666920E+002	  0.000000E+000	  3.500000E-001	  0.000000E+000	  1.666920E+002	 -5.097852E-001	  1.685566E-001	 -2.321746E-001	  1.685200E+002	 -4.647339E-001	  1.326672E-001	 -2.054885E-001	  1.709890E+002	 -5.032825E-001	  8.885986E-002	 -2.571639E-001	  1.722050E+002	 -5.986514E-001	  6.621172E-002	 -3.028013E-001
         0.1145	  1.666920E+002	  0.000000E+000	  3.500000E-001	  0.000000E+000	  1.666920E+002	 -5.097852E-001	  1.685566E-001	 -2.321746E-001	  1.685200E+002	 -4.647339E-001	  1.326672E-001	 -2.054885E-001	  1.709890E+002	 -5.032825E-001	  8.885986E-002	 -2.571639E-001	  1.722050E+002	 -5.986514E-001	  6.621172E-002	 -3.028013E-001
         0.1159	  1.666920E+002	  0.000000E+000	  3.500000E-001	  0.000000E+000	  1.666920E+002	 -5.097852E-001	  1.685566E-001	 -2.321746E-001	  1.685200E+002	 -4.647339E-001	  1.326672E-001	 -2.054885E-001	  1.709890E+002	 -5.032825E-001	  8.885986E-002	 -2.571639E-001	  1.722050E+002	 -5.986514E-001	  6.621172E-002	 -3.028013E-001
         0.1173	  1.666920E+002	  0.000000E+000	  3.500000E-001	  0.000000E+000	  1.666920E+002	 -5.097852E-001	  1.685566E-001	 -2.321746E-001	  1.685200E+002	 -4.647339E-001	  1.326672E-001	 -2.054885E-001	  1.709890E+002	 -5.032825E-001	  8.885986E-002	 -2.571639E-001	  1.722050E+002	 -5.986514E-001	  6.621172E-002	 -3.028013E-001
         0.1187	  1.666920E+002	  0.000000E+000	  3.500000E-001	  0.000000E+000	  1.666920E+002	 -5.097852E-001	  1.685566E-001	 -2.321746E-001	  1.685200E+002	 -4.647339E-001	  1.326672E-001	 -2.054885E-001	  1.709890E+002	 -5.032825E-001	  8.885986E-002	 -2.571639E-001	  1.722050E+002	 -5.986514E-001	  6.621172E-002	 -3.028013E-001